HCN                                                                     
FOpt      RB3LYP                                                      6-31G(d)
Number of atoms                            I                3
Charge                                     I                0
Multiplicity                               I                1
Number of electrons                        I               14
Number of alpha electrons                  I                7
Number of beta electrons                   I                7
Number of basis functions                  I               32
Number of independant functions            I               32
Number of contracted shells                I               10
Highest angular momentum                   I                2
Largest degree of contraction              I                6
Number of primitive shells                 I               26
Viriral Ratio                              R      2.009673381482644E+00
SCF Energy                                 R     -9.342261700955163E+01
Total Energy                               R     -9.342261700955163E+01
RMS Force                                  R      7.055733429426763E-05
RMS Density                                R      3.606188344446453E-09
Atomic numbers                             I   N=           3
           1           6           7
Nuclear charges                            R   N=           3
  1.00000000E+00  6.00000000E+00  7.00000000E+00
Current cartesian coordinates              R   N=           9
  0.00000000E+00  0.00000000E+00 -2.97207303E+00  0.00000000E+00  0.00000000E+00
 -9.48781926E-01  0.00000000E+00  0.00000000E+00  1.23782351E+00
Atom types                                 I   N=           3
           0           0           0
Force Field                                I                0
MM charges                                 R   N=           3
  0.00000000E+00  0.00000000E+00  0.00000000E+00
ONIOM Charges                              I   N=           4
           0           0           0           0
ONIOM Multiplicities                       I   N=           4
           1           0           0           0
Atom Layers                                I   N=           3
           1           1           1
Atom Modifiers                             I   N=           3
           0           0           0
Atom types                                 I   N=           3
           0           0           0
Link Atoms                                 I   N=           3
           0           0           0
Atom Modified MM Charges                   R   N=           3
  0.00000000E+00  0.00000000E+00  0.00000000E+00
Link Distances                             R   N=           3
  0.00000000E+00  0.00000000E+00  0.00000000E+00
MxBond                                     I                2
NBond                                      I   N=           3
           1           2           1
IBond                                      I   N=           6
           2           0           1           3           2           0
RBond                                      R   N=           6
  1.00000000E+00  0.00000000E+00  1.00000000E+00  3.00000000E+00  3.00000000E+00
  0.00000000E+00
Shell types                                I   N=          10
           0           0           0          -1          -1           2
           0          -1          -1           2
Number of primitives per shell             I   N=          10
           3           1           6           3           1           1
           6           3           1           1
Shell to atom map                          I   N=          10
           1           1           2           2           2           2
           3           3           3           3
Primitive exponents                        R   N=          26
  1.87311370E+01  2.82539436E+00  6.40121692E-01  1.61277759E-01  3.04752488E+03
  4.57369518E+02  1.03948685E+02  2.92101553E+01  9.28666296E+00  3.16392696E+00
  7.86827235E+00  1.88128854E+00  5.44249258E-01  1.68714478E-01  8.00000000E-01
  4.17351146E+03  6.27457911E+02  1.42902093E+02  4.02343293E+01  1.28202129E+01
  4.39043701E+00  1.16263619E+01  2.71627981E+00  7.72218397E-01  2.12031498E-01
  8.00000000E-01
Contraction coefficients                   R   N=          26
  3.34946043E-02  2.34726953E-01  8.13757326E-01  1.00000000E+00  1.83473713E-03
  1.40373228E-02  6.88426223E-02  2.32184443E-01  4.67941348E-01  3.62311985E-01
 -1.19332420E-01 -1.60854152E-01  1.14345644E+00  1.00000000E+00  1.00000000E+00
  1.83477216E-03  1.39946270E-02  6.85865518E-02  2.32240873E-01  4.69069948E-01
  3.60455199E-01 -1.14961182E-01 -1.69117479E-01  1.14585195E+00  1.00000000E+00
  1.00000000E+00
P(S=P) Contraction coefficients            R   N=          26
  0.00000000E+00  0.00000000E+00  0.00000000E+00  0.00000000E+00  0.00000000E+00
  0.00000000E+00  0.00000000E+00  0.00000000E+00  0.00000000E+00  0.00000000E+00
  6.89990666E-02  3.16423961E-01  7.44308291E-01  1.00000000E+00  0.00000000E+00
  0.00000000E+00  0.00000000E+00  0.00000000E+00  0.00000000E+00  0.00000000E+00
  0.00000000E+00  6.75797439E-02  3.23907296E-01  7.40895140E-01  1.00000000E+00
  0.00000000E+00
Coordinates of each shell                  R   N=          30
  0.00000000E+00  0.00000000E+00 -2.97207303E+00  0.00000000E+00  0.00000000E+00
 -2.97207303E+00  0.00000000E+00  0.00000000E+00 -9.48781926E-01  0.00000000E+00
  0.00000000E+00 -9.48781926E-01  0.00000000E+00  0.00000000E+00 -9.48781926E-01
  0.00000000E+00  0.00000000E+00 -9.48781926E-01  0.00000000E+00  0.00000000E+00
  1.23782351E+00  0.00000000E+00  0.00000000E+00  1.23782351E+00  0.00000000E+00
  0.00000000E+00  1.23782351E+00  0.00000000E+00  0.00000000E+00  1.23782351E+00
Alpha Orbital Energies                     R   N=          32
 -1.43605368E+01 -1.02468339E+01 -9.19749883E-01 -6.08696134E-01 -3.80473171E-01
 -3.59142002E-01 -3.59142002E-01  2.04567954E-02  2.04567954E-02  8.08892490E-02
  2.77726419E-01  5.19607054E-01  5.19607054E-01  6.36176477E-01  6.89836645E-01
  7.71192554E-01  7.71192554E-01  8.10236564E-01  1.09194868E+00  1.43881130E+00
  1.50628479E+00  1.50628494E+00  1.52878454E+00  1.52878454E+00  1.94929277E+00
  1.94929297E+00  2.55164767E+00  2.55164767E+00  2.59913219E+00  2.97293390E+00
  3.84765651E+00  4.09189293E+00
Alpha MO coefficients                      R   N=        1024
  2.72883658E-04 -6.78764078E-04  7.22054008E-05  1.34196292E-04  0.00000000E+00
  0.00000000E+00 -7.75279201E-04 -1.65586453E-03  0.00000000E+00  0.00000000E+00
 -1.57730299E-03  8.49273951E-05  8.49273951E-05 -1.40570854E-03  0.00000000E+00
  0.00000000E+00  0.00000000E+00  9.92801695E-01  3.45626163E-02  0.00000000E+00
  0.00000000E+00 -2.20389256E-03  5.52552144E-03  0.00000000E+00  0.00000000E+00
 -7.85389398E-04 -8.29192030E-03 -8.29192030E-03 -7.02419135E-03  0.00000000E+00
  0.00000000E+00  0.00000000E+00 -7.16377639E-04  3.89266483E-03  9.92458597E-01
  4.93124421E-02  0.00000000E+00  0.00000000E+00  4.92055127E-05 -4.58624059E-03
  0.00000000E+00  0.00000000E+00  4.57144124E-03 -1.05603735E-02 -1.05603735E-02
 -8.67507218E-03  0.00000000E+00  0.00000000E+00  0.00000000E+00 -6.07894452E-04
 -1.30306981E-05  0.00000000E+00  0.00000000E+00  1.85166354E-04 -4.23016568E-03
  0.00000000E+00  0.00000000E+00  2.08581877E-03  1.07463516E-05  1.07463516E-05
  6.23099601E-05  0.00000000E+00  0.00000000E+00  0.00000000E+00  3.15126848E-02
 -4.95541507E-02 -1.52634450E-01  2.88583051E-01  0.00000000E+00  0.00000000E+00
  2.09240608E-01  9.27125642E-02  0.00000000E+00  0.00000000E+00 -9.08811705E-02
 -1.91934404E-02 -1.91934404E-02  1.76773459E-02  0.00000000E+00  0.00000000E+00
  0.00000000E+00 -1.84099312E-01  3.69372349E-01  0.00000000E+00  0.00000000E+00
 -2.02018967E-01  3.98875781E-01  0.00000000E+00  0.00000000E+00 -7.47818605E-02
 -1.72859909E-02 -1.72859909E-02  9.38207324E-03  0.00000000E+00  0.00000000E+00
  0.00000000E+00 -3.03161122E-01 -1.60878483E-01  1.27180434E-01 -2.63909943E-01
  0.00000000E+00  0.00000000E+00  3.50345711E-01 -2.65085842E-01  0.00000000E+00
  0.00000000E+00  9.47999201E-02  9.23523690E-03  9.23523690E-03 -2.28571382E-02
  0.00000000E+00  0.00000000E+00  0.00000000E+00 -6.96795370E-02  1.54384040E-01
  0.00000000E+00  0.00000000E+00 -1.61896692E-02  1.55341592E-01  0.00000000E+00
  0.00000000E+00  7.57591493E-03 -5.21095010E-03 -5.21095010E-03  1.11748972E-03
  0.00000000E+00  0.00000000E+00  0.00000000E+00  8.40432679E-02  1.39028692E-01
  6.93826100E-02 -1.52840518E-01  0.00000000E+00  0.00000000E+00 -2.41512027E-01
 -1.04261901E-01  0.00000000E+00  0.00000000E+00  2.08104546E-02  3.54151872E-03
  3.54151872E-03  2.22881773E-02  0.00000000E+00  0.00000000E+00  0.00000000E+00
 -1.16838246E-01  2.47291574E-01  0.00000000E+00  0.00000000E+00  5.10187934E-01
  4.58136954E-01  0.00000000E+00  0.00000000E+00  2.66502492E-01  3.66444050E-03
  3.66444050E-03 -4.72798734E-02  0.00000000E+00  0.00000000E+00  0.00000000E+00
  0.00000000E+00  0.00000000E+00  0.00000000E+00  0.00000000E+00  4.15348292E-01
  0.00000000E+00  0.00000000E+00  0.00000000E+00  2.38116345E-01  0.00000000E+00
  0.00000000E+00  0.00000000E+00  0.00000000E+00  0.00000000E+00  0.00000000E+00
  2.17455968E-02  0.00000000E+00  0.00000000E+00  0.00000000E+00  4.58653645E-01
  0.00000000E+00  0.00000000E+00  0.00000000E+00  2.51969456E-01  0.00000000E+00
  0.00000000E+00  0.00000000E+00  0.00000000E+00  0.00000000E+00  0.00000000E+00
 -3.41035697E-02  0.00000000E+00  0.00000000E+00  0.00000000E+00  0.00000000E+00
  0.00000000E+00  0.00000000E+00  4.15348292E-01  0.00000000E+00  0.00000000E+00
  0.00000000E+00  2.38116345E-01  0.00000000E+00  0.00000000E+00  0.00000000E+00
  0.00000000E+00  0.00000000E+00  0.00000000E+00  2.17455968E-02  0.00000000E+00
  0.00000000E+00  0.00000000E+00  4.58653645E-01  0.00000000E+00  0.00000000E+00
  0.00000000E+00  2.51969456E-01  0.00000000E+00  0.00000000E+00  0.00000000E+00
  0.00000000E+00  0.00000000E+00  0.00000000E+00 -3.41035697E-02  0.00000000E+00
  0.00000000E+00  0.00000000E+00  0.00000000E+00  4.39440786E-01  0.00000000E+00
  0.00000000E+00  0.00000000E+00  6.63466000E-01  0.00000000E+00  0.00000000E+00
  0.00000000E+00  0.00000000E+00  0.00000000E+00  0.00000000E+00 -4.28277703E-02
  0.00000000E+00  0.00000000E+00  0.00000000E+00 -4.68809731E-01  0.00000000E+00
  0.00000000E+00  0.00000000E+00 -5.96450535E-01  0.00000000E+00  0.00000000E+00
  0.00000000E+00  0.00000000E+00  0.00000000E+00  0.00000000E+00 -4.86601717E-03
  0.00000000E+00  0.00000000E+00  0.00000000E+00  0.00000000E+00  0.00000000E+00
  0.00000000E+00  4.39440786E-01  0.00000000E+00  0.00000000E+00  0.00000000E+00
  6.63466000E-01  0.00000000E+00  0.00000000E+00  0.00000000E+00  0.00000000E+00
  0.00000000E+00  0.00000000E+00 -4.28277703E-02  0.00000000E+00  0.00000000E+00
  0.00000000E+00 -4.68809731E-01  0.00000000E+00  0.00000000E+00  0.00000000E+00
 -5.96450535E-01  0.00000000E+00  0.00000000E+00  0.00000000E+00  0.00000000E+00
  0.00000000E+00  0.00000000E+00 -4.86601717E-03  1.83916145E-01  1.94980226E+00
  1.19862173E-01 -1.63032367E-01  0.00000000E+00  0.00000000E+00  2.73162343E-01
 -1.61516802E+00  0.00000000E+00  0.00000000E+00  7.54449209E-01 -2.32397101E-03
 -2.32397101E-03  2.45050722E-02  0.00000000E+00  0.00000000E+00  0.00000000E+00
 -3.12198993E-02  1.30434938E-01  0.00000000E+00  0.00000000E+00 -1.84260385E-01
 -8.17399067E-02  0.00000000E+00  0.00000000E+00 -1.29664271E-01  5.00382384E-03
  5.00382384E-03  1.76660978E-02  0.00000000E+00  0.00000000E+00  0.00000000E+00
  3.16013323E-01 -2.17873105E+00  1.77224153E-02  2.55282738E-01  0.00000000E+00
  0.00000000E+00 -1.52693106E-01 -2.80085604E+00  0.00000000E+00  0.00000000E+00
 -3.65401696E+00  2.42185614E-03  2.42185614E-03  5.16380015E-02  0.00000000E+00
  0.00000000E+00  0.00000000E+00 -1.23375601E-01  1.15060137E-01  0.00000000E+00
  0.00000000E+00 -8.91110840E-02  4.21741700E+00  0.00000000E+00  0.00000000E+00
 -1.75516493E+00 -5.62922692E-02 -5.62922692E-02  1.89732169E-02  0.00000000E+00
  0.00000000E+00  0.00000000E+00  0.00000000E+00  0.00000000E+00  0.00000000E+00
  0.00000000E+00  0.00000000E+00 -9.98799496E-01  0.00000000E+00  0.00000000E+00
  0.00000000E+00  1.11854893E+00  0.00000000E+00  0.00000000E+00  0.00000000E+00
  0.00000000E+00  0.00000000E+00  0.00000000E+00 -2.69982077E-02  0.00000000E+00
  0.00000000E+00  0.00000000E+00 -1.55331846E-01  0.00000000E+00  0.00000000E+00
  0.00000000E+00  1.06947274E-02  0.00000000E+00  0.00000000E+00  0.00000000E+00
  0.00000000E+00  0.00000000E+00  0.00000000E+00  7.98974450E-02  0.00000000E+00
  0.00000000E+00  0.00000000E+00  0.00000000E+00 -9.98799496E-01  0.00000000E+00
  0.00000000E+00  0.00000000E+00  1.11854893E+00  0.00000000E+00  0.00000000E+00
  0.00000000E+00  0.00000000E+00  0.00000000E+00  0.00000000E+00 -2.69982077E-02
  0.00000000E+00  0.00000000E+00  0.00000000E+00 -1.55331846E-01  0.00000000E+00
  0.00000000E+00  0.00000000E+00  1.06947274E-02  0.00000000E+00  0.00000000E+00
  0.00000000E+00  0.00000000E+00  0.00000000E+00  0.00000000E+00  7.98974450E-02
  0.00000000E+00  4.13716127E-01  3.03512294E-01  3.94980825E-02  6.19574304E-01
  0.00000000E+00  0.00000000E+00  1.82285943E-01  9.95830950E-01  0.00000000E+00
  0.00000000E+00  1.44163975E+00 -1.72040211E-02 -1.72040211E-02  2.09902080E-01
  0.00000000E+00  0.00000000E+00  0.00000000E+00  5.75152609E-02 -2.60732743E-01
  0.00000000E+00  0.00000000E+00 -5.61632302E-01 -1.60012958E+00  0.00000000E+00
  0.00000000E+00  1.87526005E+00 -5.03404641E-02 -5.03404641E-02 -1.13416513E-01
  0.00000000E+00  0.00000000E+00  0.00000000E+00  4.88588579E-01  1.13522193E+00
  4.87957453E-02 -2.97442187E-01  0.00000000E+00  0.00000000E+00 -7.62884352E-01
 -3.74722690E-01  0.00000000E+00  0.00000000E+00  2.37396889E+00 -5.77271525E-02
 -5.77271525E-02  1.51724966E-01  0.00000000E+00  0.00000000E+00  0.00000000E+00
 -3.25961316E-02 -1.75477085E-01  0.00000000E+00  0.00000000E+00 -1.37444482E-01
 -7.86492502E-01  0.00000000E+00  0.00000000E+00 -3.18772683E-01  2.02061232E-02
  2.02061232E-02 -2.19709078E-01  0.00000000E+00  0.00000000E+00  0.00000000E+00
  0.00000000E+00  0.00000000E+00  0.00000000E+00  0.00000000E+00  2.70943130E-01
  0.00000000E+00  0.00000000E+00  0.00000000E+00 -7.40847881E-01  0.00000000E+00
  0.00000000E+00  0.00000000E+00  0.00000000E+00  0.00000000E+00  0.00000000E+00
 -7.24714644E-02  0.00000000E+00  0.00000000E+00  0.00000000E+00 -9.52342262E-01
  0.00000000E+00  0.00000000E+00  0.00000000E+00  1.35388948E+00  0.00000000E+00
  0.00000000E+00  0.00000000E+00  0.00000000E+00  0.00000000E+00  0.00000000E+00
  1.09370323E-02  0.00000000E+00  0.00000000E+00  0.00000000E+00  0.00000000E+00
  0.00000000E+00  0.00000000E+00  2.70943130E-01  0.00000000E+00  0.00000000E+00
  0.00000000E+00 -7.40847881E-01  0.00000000E+00  0.00000000E+00  0.00000000E+00
  0.00000000E+00  0.00000000E+00  0.00000000E+00 -7.24714644E-02  0.00000000E+00
  0.00000000E+00  0.00000000E+00 -9.52342262E-01  0.00000000E+00  0.00000000E+00
  0.00000000E+00  1.35388948E+00  0.00000000E+00  0.00000000E+00  0.00000000E+00
  0.00000000E+00  0.00000000E+00  0.00000000E+00  1.09370323E-02 -3.00046582E-01
  2.45011161E+00 -4.24556368E-02  1.49665322E+00  0.00000000E+00  0.00000000E+00
 -3.74309333E-01 -2.33195198E+00  0.00000000E+00  0.00000000E+00  2.24741200E+00
  1.38082767E-01  1.38082767E-01 -1.56508339E-02  0.00000000E+00  0.00000000E+00
  0.00000000E+00  3.36777275E-02  2.55526879E-02  0.00000000E+00  0.00000000E+00
  3.21291300E-01 -1.14125517E+00  0.00000000E+00  0.00000000E+00  7.79490784E-02
 -3.54376909E-04 -3.54376909E-04  1.05480566E-01  0.00000000E+00  0.00000000E+00
  0.00000000E+00  1.08866458E+00 -1.76497507E-01 -3.12641923E-02  6.11066825E-02
  0.00000000E+00  0.00000000E+00  7.31058960E-01  5.61756909E-01  0.00000000E+00
  0.00000000E+00  1.00563751E+00  3.63614333E-02  3.63614333E-02 -8.68918826E-02
  0.00000000E+00  0.00000000E+00  0.00000000E+00  5.37275464E-02 -2.81265818E-01
  0.00000000E+00  0.00000000E+00  6.95397417E-01 -1.07782976E+00  0.00000000E+00
  0.00000000E+00 -3.25646519E-04 -6.37159508E-02 -6.37159508E-02  1.79150626E-01
  0.00000000E+00  0.00000000E+00  0.00000000E+00 -2.76923720E-01 -2.05571079E+00
 -3.44412838E-02 -1.07882771E-01  0.00000000E+00  0.00000000E+00  1.63978668E-01
 -4.92946352E+00  0.00000000E+00  0.00000000E+00 -5.67836662E+00  1.59079117E-01
  1.59079117E-01 -2.98019575E-01  0.00000000E+00  0.00000000E+00  0.00000000E+00
 -9.23611989E-02 -1.89816975E+00  0.00000000E+00  0.00000000E+00  2.26776417E-02
  9.21832854E+00  0.00000000E+00  0.00000000E+00 -3.14065867E+00 -1.77494281E-01
 -1.77494281E-01 -2.80017164E-01  0.00000000E+00  0.00000000E+00  0.00000000E+00
  3.86837152E-14  3.02366460E-13  5.66259128E-15 -2.30716997E-15  0.00000000E+00
  0.00000000E+00 -2.55639552E-14  6.94157226E-13  0.00000000E+00  0.00000000E+00
  8.13055969E-13  6.17416399E-01 -6.17416399E-01  4.36753875E-14  0.00000000E+00
  0.00000000E+00  0.00000000E+00  1.29934195E-14  2.60257875E-13  0.00000000E+00
  0.00000000E+00 -5.65797564E-15 -1.28991296E-12  0.00000000E+00  0.00000000E+00
  4.44140228E-13  5.22897099E-01 -5.22897099E-01  3.92425634E-14  0.00000000E+00
  0.00000000E+00  0.00000000E+00  0.00000000E+00  0.00000000E+00  0.00000000E+00
  0.00000000E+00  0.00000000E+00  0.00000000E+00  0.00000000E+00  0.00000000E+00
  0.00000000E+00  0.00000000E+00  0.00000000E+00  0.00000000E+00  0.00000000E+00
  0.00000000E+00  7.12930914E-01  0.00000000E+00  0.00000000E+00  0.00000000E+00
  0.00000000E+00  0.00000000E+00  0.00000000E+00  0.00000000E+00  0.00000000E+00
  0.00000000E+00  0.00000000E+00  0.00000000E+00  0.00000000E+00  0.00000000E+00
  0.00000000E+00  6.03789713E-01  0.00000000E+00  0.00000000E+00  0.00000000E+00
  0.00000000E+00  0.00000000E+00  0.00000000E+00  0.00000000E+00 -2.28717710E-01
  0.00000000E+00  0.00000000E+00  0.00000000E+00  1.24880991E-01  0.00000000E+00
  0.00000000E+00  0.00000000E+00  0.00000000E+00  0.00000000E+00  0.00000000E+00
  6.62858259E-01  0.00000000E+00  0.00000000E+00  0.00000000E+00 -2.37618195E-01
  0.00000000E+00  0.00000000E+00  0.00000000E+00 -1.44116461E-02  0.00000000E+00
  0.00000000E+00  0.00000000E+00  0.00000000E+00  0.00000000E+00  0.00000000E+00
 -5.42240760E-01  0.00000000E+00  0.00000000E+00  0.00000000E+00  0.00000000E+00
 -2.28717710E-01  0.00000000E+00  0.00000000E+00  0.00000000E+00  1.24880991E-01
  0.00000000E+00  0.00000000E+00  0.00000000E+00  0.00000000E+00  0.00000000E+00
  0.00000000E+00  6.62858259E-01  0.00000000E+00  0.00000000E+00  0.00000000E+00
 -2.37618195E-01  0.00000000E+00  0.00000000E+00  0.00000000E+00 -1.44116461E-02
  0.00000000E+00  0.00000000E+00  0.00000000E+00  0.00000000E+00  0.00000000E+00
  0.00000000E+00 -5.42240760E-01  0.00000000E+00 -8.47987951E-15 -8.74080028E-14
  7.39141100E-16  4.91100906E-15  0.00000000E+00  0.00000000E+00  1.55282964E-14
 -1.68000507E-13  0.00000000E+00  0.00000000E+00 -2.24556604E-13 -6.20907324E-01
  6.20907324E-01 -1.96133424E-14  0.00000000E+00  0.00000000E+00  0.00000000E+00
  1.28507382E-15 -7.12383907E-14  0.00000000E+00  0.00000000E+00 -4.35393281E-15
  3.08681255E-13  0.00000000E+00  0.00000000E+00 -9.87766118E-14  7.02358554E-01
 -7.02358554E-01 -1.83425318E-14  0.00000000E+00  0.00000000E+00  0.00000000E+00
  0.00000000E+00  0.00000000E+00  0.00000000E+00  0.00000000E+00  0.00000000E+00
  0.00000000E+00  0.00000000E+00  0.00000000E+00  0.00000000E+00  0.00000000E+00
  0.00000000E+00  0.00000000E+00  0.00000000E+00  0.00000000E+00 -7.16962155E-01
  0.00000000E+00  0.00000000E+00  0.00000000E+00  0.00000000E+00  0.00000000E+00
  0.00000000E+00  0.00000000E+00  0.00000000E+00  0.00000000E+00  0.00000000E+00
  0.00000000E+00  0.00000000E+00  0.00000000E+00  0.00000000E+00  8.11013688E-01
  0.00000000E+00  0.00000000E+00  0.00000000E+00  0.00000000E+00  0.00000000E+00
  0.00000000E+00  3.25982207E-01  0.00000000E+00  0.00000000E+00  0.00000000E+00
  3.15929996E-01  0.00000000E+00  0.00000000E+00  0.00000000E+00  0.00000000E+00
  0.00000000E+00  0.00000000E+00  1.01428980E+00  0.00000000E+00  0.00000000E+00
  0.00000000E+00 -1.58316401E-01  0.00000000E+00  0.00000000E+00  0.00000000E+00
 -4.38124244E-01  0.00000000E+00  0.00000000E+00  0.00000000E+00  0.00000000E+00
  0.00000000E+00  0.00000000E+00  1.08522416E+00  0.00000000E+00  0.00000000E+00
  0.00000000E+00  0.00000000E+00  0.00000000E+00  0.00000000E+00  3.25982207E-01
  0.00000000E+00  0.00000000E+00  0.00000000E+00  3.15929996E-01  0.00000000E+00
  0.00000000E+00  0.00000000E+00  0.00000000E+00  0.00000000E+00  0.00000000E+00
  1.01428980E+00  0.00000000E+00  0.00000000E+00  0.00000000E+00 -1.58316401E-01
  0.00000000E+00  0.00000000E+00  0.00000000E+00 -4.38124244E-01  0.00000000E+00
  0.00000000E+00  0.00000000E+00  0.00000000E+00  0.00000000E+00  0.00000000E+00
  1.08522416E+00 -6.04244828E-01 -5.57898461E-01 -1.66463294E-01 -3.04638945E-01
  0.00000000E+00  0.00000000E+00 -5.11104540E-01 -1.77354002E+00  0.00000000E+00
  0.00000000E+00 -1.97672913E+00 -6.20363026E-01 -6.20363026E-01  4.53140106E-01
  0.00000000E+00  0.00000000E+00  0.00000000E+00 -7.07937684E-02 -1.12941347E+00
  0.00000000E+00  0.00000000E+00  2.57574254E-01  3.99940495E+00  0.00000000E+00
  0.00000000E+00 -1.95761028E+00 -4.79005292E-01 -4.79005292E-01  8.24101446E-01
  0.00000000E+00  0.00000000E+00  0.00000000E+00  4.27526222E-01 -3.51430403E-01
  1.85891607E-02 -1.51963764E+00  0.00000000E+00  0.00000000E+00 -1.22478469E+00
 -1.69392257E+00  0.00000000E+00  0.00000000E+00 -9.67425950E-01  7.58042361E-01
  7.58042361E-01 -1.09501944E+00  0.00000000E+00  0.00000000E+00  0.00000000E+00
 -2.33451703E-02  2.54918109E-01  0.00000000E+00  0.00000000E+00 -9.69889961E-01
  2.40338454E+00  0.00000000E+00  0.00000000E+00 -1.28257425E+00 -5.14265057E-01
 -5.14265057E-01  1.33525359E+00  0.00000000E+00  0.00000000E+00  0.00000000E+00
 -1.92032764E-01 -1.13586682E+00 -2.74094861E-02  2.41486959E-01  0.00000000E+00
  0.00000000E+00  3.27546876E-01 -3.24917901E+00  0.00000000E+00  0.00000000E+00
 -3.29941110E+00 -1.18254782E-01 -1.18254782E-01  7.37878644E-02  0.00000000E+00
  0.00000000E+00  0.00000000E+00 -5.37305910E-01  6.21372995E-01  0.00000000E+00
  0.00000000E+00  3.10169120E-01  7.07655887E+00  0.00000000E+00  0.00000000E+00
 -2.08202032E+00 -1.66962793E+00 -1.66962793E+00 -1.58319488E+00  0.00000000E+00
  0.00000000E+00  0.00000000E+00  4.09594417E-01 -6.52715918E-01 -4.49464984E-01
  2.91727823E+00  0.00000000E+00  0.00000000E+00 -3.65642049E-01  9.15202956E-01
  0.00000000E+00  0.00000000E+00 -4.30770098E-01 -1.56971326E+00 -1.56971326E+00
 -2.43563067E+00  0.00000000E+00  0.00000000E+00  0.00000000E+00  4.74362153E-02
  3.33473826E-01  0.00000000E+00  0.00000000E+00 -5.71073182E-01  9.62405622E-02
  0.00000000E+00  0.00000000E+00 -1.96039272E-01  3.99907295E-02  3.99907295E-02
  3.97294181E-01  0.00000000E+00  0.00000000E+00  0.00000000E+00
Total SCF Density                          R   N=         528
  1.99927147E-01  1.17783938E-01  9.53641818E-02 -7.64917971E-02  1.22501683E-03
  2.05852031E+00  1.52441510E-01  1.41991835E-02 -7.85516076E-02  3.57441189E-01
  0.00000000E+00  0.00000000E+00  0.00000000E+00  0.00000000E+00  3.45028408E-01
  0.00000000E+00  0.00000000E+00  0.00000000E+00  0.00000000E+00  0.00000000E+00
  3.45028408E-01 -2.39830344E-01 -2.00616421E-01 -8.17632378E-03  9.67744414E-03
  0.00000000E+00  0.00000000E+00  4.49704824E-01  1.49051331E-01  4.70803826E-02
 -1.19301200E-01  2.24846252E-01  0.00000000E+00  0.00000000E+00 -9.65817866E-02
  1.79520885E-01  0.00000000E+00  0.00000000E+00  0.00000000E+00  0.00000000E+00
  1.97802435E-01  0.00000000E+00  0.00000000E+00  0.00000000E+00  1.13398788E-01
  0.00000000E+00  0.00000000E+00  0.00000000E+00  0.00000000E+00  0.00000000E+00
  1.97802435E-01  0.00000000E+00  0.00000000E+00  0.00000000E+00  1.13398788E-01
 -5.97165729E-02 -1.56712243E-02  6.38180568E-02 -1.08401741E-01  0.00000000E+00
  0.00000000E+00  1.83443735E-02 -7.14880689E-02  0.00000000E+00  0.00000000E+00
  3.54057460E-02 -6.19874483E-03 -1.66858374E-04 -1.22617717E-02 -1.80764128E-02
  0.00000000E+00  0.00000000E+00 -3.27285269E-03 -9.09711463E-03  0.00000000E+00
  0.00000000E+00  5.29022517E-03  1.15549762E-03 -6.19874483E-03 -1.66858374E-04
 -1.22617717E-02 -1.80764128E-02  0.00000000E+00  0.00000000E+00 -3.27285269E-03
 -9.09711463E-03  0.00000000E+00  0.00000000E+00  5.29022517E-03  1.15549762E-03
  1.15549762E-03  1.87309172E-02  1.17342340E-02 -2.53369845E-02  1.45981885E-02
  0.00000000E+00  0.00000000E+00 -1.93825633E-02  1.08326434E-02  0.00000000E+00
  0.00000000E+00 -6.69401202E-03 -7.59907110E-04 -7.59907110E-04  2.81786613E-03
  0.00000000E+00  0.00000000E+00  0.00000000E+00  0.00000000E+00  0.00000000E+00
  0.00000000E+00  0.00000000E+00  0.00000000E+00  0.00000000E+00  0.00000000E+00
  0.00000000E+00  0.00000000E+00  0.00000000E+00  0.00000000E+00  0.00000000E+00
  0.00000000E+00  0.00000000E+00  0.00000000E+00  0.00000000E+00  1.80639930E-02
  0.00000000E+00  0.00000000E+00  0.00000000E+00  1.03559641E-02  0.00000000E+00
  0.00000000E+00  0.00000000E+00  0.00000000E+00  0.00000000E+00  0.00000000E+00
  9.45741960E-04  0.00000000E+00  0.00000000E+00  0.00000000E+00  0.00000000E+00
  0.00000000E+00  1.80639930E-02  0.00000000E+00  0.00000000E+00  0.00000000E+00
  1.03559641E-02  0.00000000E+00  0.00000000E+00  0.00000000E+00  0.00000000E+00
  0.00000000E+00  0.00000000E+00  9.45741960E-04  1.15490997E-02  6.82542065E-03
  2.11997133E-02 -3.35558938E-02  0.00000000E+00  0.00000000E+00 -7.09697315E-02
  2.38867197E-02  0.00000000E+00  0.00000000E+00  1.22507227E-02  5.13388594E-03
  5.13388594E-03 -1.13122805E-02  0.00000000E+00  0.00000000E+00  0.00000000E+00
  2.07610909E+00 -2.87413830E-02 -1.75677797E-02 -3.91940365E-02  5.61178791E-02
  0.00000000E+00  0.00000000E+00  1.43249591E-01 -6.50396527E-02  0.00000000E+00
  0.00000000E+00 -2.76834440E-02 -9.56978469E-03 -9.56978469E-03  1.69279039E-02
  0.00000000E+00  0.00000000E+00  0.00000000E+00 -1.46675771E-01  4.45236122E-01
  0.00000000E+00  0.00000000E+00  0.00000000E+00  0.00000000E+00  3.81002017E-01
  0.00000000E+00  0.00000000E+00  0.00000000E+00  2.18425860E-01  0.00000000E+00
  0.00000000E+00  0.00000000E+00  0.00000000E+00  0.00000000E+00  0.00000000E+00
  1.99473945E-02  0.00000000E+00  0.00000000E+00  0.00000000E+00  4.20726333E-01
  0.00000000E+00  0.00000000E+00  0.00000000E+00  0.00000000E+00  0.00000000E+00
  3.81002017E-01  0.00000000E+00  0.00000000E+00  0.00000000E+00  2.18425860E-01
  0.00000000E+00  0.00000000E+00  0.00000000E+00  0.00000000E+00  0.00000000E+00
  0.00000000E+00  1.99473945E-02  0.00000000E+00  0.00000000E+00  0.00000000E+00
  4.20726333E-01  8.28380908E-02  1.67096851E-01  1.28715652E-01 -2.63990376E-01
  0.00000000E+00  0.00000000E+00 -3.42314714E-01 -1.35256816E-01  0.00000000E+00
  0.00000000E+00  5.48930128E-02  1.10652422E-02  1.10652422E-02  1.63430824E-02
  0.00000000E+00  0.00000000E+00  0.00000000E+00 -4.69559252E-02  9.79387107E-02
  0.00000000E+00  0.00000000E+00  6.02740777E-01  7.96796091E-03  3.78337881E-02
 -2.70738044E-02  7.76570281E-03  0.00000000E+00  0.00000000E+00  5.44683901E-02
 -1.03908078E-01  0.00000000E+00  0.00000000E+00 -2.40358849E-02 -9.10708031E-03
 -9.10708031E-03  2.74807366E-02  0.00000000E+00  0.00000000E+00  0.00000000E+00
 -2.64592973E-01  5.69600774E-01  0.00000000E+00  0.00000000E+00  3.01255166E-01
  7.86341587E-01  0.00000000E+00  0.00000000E+00  0.00000000E+00  0.00000000E+00
  2.09310166E-01  0.00000000E+00  0.00000000E+00  0.00000000E+00  1.19996092E-01
  0.00000000E+00  0.00000000E+00  0.00000000E+00  0.00000000E+00  0.00000000E+00
  0.00000000E+00  1.09584524E-02  0.00000000E+00  0.00000000E+00  0.00000000E+00
  2.31133419E-01  0.00000000E+00  0.00000000E+00  0.00000000E+00  1.26977213E-01
  0.00000000E+00  0.00000000E+00  0.00000000E+00  0.00000000E+00  0.00000000E+00
  2.09310166E-01  0.00000000E+00  0.00000000E+00  0.00000000E+00  1.19996092E-01
  0.00000000E+00  0.00000000E+00  0.00000000E+00  0.00000000E+00  0.00000000E+00
  0.00000000E+00  1.09584524E-02  0.00000000E+00  0.00000000E+00  0.00000000E+00
  2.31133419E-01  0.00000000E+00  0.00000000E+00  0.00000000E+00  1.26977213E-01
  3.54854634E-02  7.90941904E-02  6.58769337E-02 -1.28419528E-01  0.00000000E+00
  0.00000000E+00 -1.54712116E-01 -7.34716155E-02  0.00000000E+00  0.00000000E+00
  2.61425423E-02  4.85403278E-03  4.85403278E-03  8.85551129E-03  0.00000000E+00
  0.00000000E+00  0.00000000E+00 -3.73585694E-02  7.88477943E-02  0.00000000E+00
  0.00000000E+00  3.01906351E-01  1.86859317E-01  0.00000000E+00  0.00000000E+00
  1.53356534E-01  2.68146124E-03  4.42010961E-03  4.48004372E-03 -8.34776050E-03
  0.00000000E+00  0.00000000E+00 -1.26422853E-02 -1.17931994E-03  0.00000000E+00
  0.00000000E+00  2.33272021E-03  5.91626533E-04  5.91626533E-04 -1.86453072E-04
  0.00000000E+00  0.00000000E+00  0.00000000E+00 -1.02299005E-02 -1.31397199E-02
  0.00000000E+00  0.00000000E+00  1.09285828E-02 -1.21429749E-02  0.00000000E+00
  0.00000000E+00  4.47263634E-03  8.16287329E-04  2.68146124E-03  4.42010961E-03
  4.48004372E-03 -8.34776050E-03  0.00000000E+00  0.00000000E+00 -1.26422853E-02
 -1.17931994E-03  0.00000000E+00  0.00000000E+00  2.33272021E-03  5.91626533E-04
  5.91626533E-04 -1.86453072E-04  0.00000000E+00  0.00000000E+00  0.00000000E+00
 -1.02299005E-02 -1.31397199E-02  0.00000000E+00  0.00000000E+00  1.09285828E-02
 -1.21429749E-02  0.00000000E+00  0.00000000E+00  4.47263634E-03  8.16287329E-04
  8.16287329E-04 -8.03728321E-03 -1.44258987E-02 -9.01794582E-03  1.92820021E-02
  0.00000000E+00  0.00000000E+00  2.75574505E-02  1.10288803E-02  0.00000000E+00
  0.00000000E+00 -3.43853479E-03 -6.76902202E-04 -6.76902202E-04 -1.80828248E-03
  0.00000000E+00  0.00000000E+00  0.00000000E+00 -6.50933777E-03 -1.65933770E-02