H                                                                       
SP        UB3LYP                                                      6-311++G(d,p)
Number of atoms                            I                1
Charge                                     I                0
Multiplicity                               I                2
Number of electrons                        I                1
Number of alpha electrons                  I                1
Number of beta electrons                   I                0
Number of basis functions                  I                7
Number of independant functions            I                7
Number of contracted shells                I                5
Highest angular momentum                   I                1
Largest degree of contraction              I                3
Number of primitive shells                 I                7
Viriral Ratio                              R      2.011721807154437E+00
SCF Energy                                 R     -5.022569521460314E-01
Total Energy                               R     -5.022569521460314E-01
S**2                                       R      7.500000000000000E-01
S**2 after annihilation                    R      7.500000000000000E-01
RMS Density                                R      4.497823803469347E-05
Atomic numbers                             I   N=           1
           1
Nuclear charges                            R   N=           1
  1.00000000E+00
Current cartesian coordinates              R   N=           3
  0.00000000E+00  0.00000000E+00  0.00000000E+00
Atom types                                 I   N=           1
           0
Force Field                                I                0
MM charges                                 R   N=           1
  0.00000000E+00
ONIOM Charges                              I   N=           4
           0           0           0           0
ONIOM Multiplicities                       I   N=           4
           2           0           0           0
Atom Layers                                I   N=           1
           1
Atom Modifiers                             I   N=           1
           0
Atom types                                 I   N=           1
           0
Link Atoms                                 I   N=           1
           0
Atom Modified MM Charges                   R   N=           1
  0.00000000E+00
Link Distances                             R   N=           1
  0.00000000E+00
MxBond                                     I                0
NBond                                      I   N=           1
           0
IBond                                      I                0
RBond                                      R      0.000000000000000E+00
Shell types                                I   N=           5
           0           0           0           0           1
Number of primitives per shell             I   N=           5
           3           1           1           1           1
Shell to atom map                          I   N=           5
           1           1           1           1           1
Primitive exponents                        R   N=           7
  3.38650000E+01  5.09479000E+00  1.15879000E+00  3.25840000E-01  1.02741000E-01
  3.60000000E-02  7.50000000E-01
Contraction coefficients                   R   N=           7
  2.54938145E-02  1.90373109E-01  8.52161486E-01  1.00000000E+00  1.00000000E+00
  1.00000000E+00  1.00000000E+00
Coordinates of each shell                  R   N=          15
  0.00000000E+00  0.00000000E+00  0.00000000E+00  0.00000000E+00  0.00000000E+00
  0.00000000E+00  0.00000000E+00  0.00000000E+00  0.00000000E+00  0.00000000E+00
  0.00000000E+00  0.00000000E+00  0.00000000E+00  0.00000000E+00  0.00000000E+00
Alpha Orbital Energies                     R   N=           7
 -3.22433259E-01  4.03187836E-02  3.87273587E-01  1.25224987E+00  1.25224987E+00
  1.25224987E+00  2.29090600E+00
Beta Orbital Energies                      R   N=           7
  2.21344081E-03  1.30827409E-01  5.88055100E-01  1.58376776E+00  1.58376776E+00
  1.58376776E+00  2.70421386E+00
Alpha MO coefficients                      R   N=          49
  2.48026458E-01  4.76902212E-01  3.82665199E-01  3.23545364E-02 -2.82120748E-17
 -5.16514887E-17  1.24057503E-16 -1.05073664E-01 -9.37884741E-02 -9.08632559E-01
  1.57586285E+00 -1.40090304E-16  3.28771633E-17 -1.40849769E-17 -1.45610443E-01
 -1.52120696E+00  2.71506548E+00 -1.31067014E+00  7.11780070E-17  1.12129664E-16
  1.58460684E-16  1.86967112E-17  3.13342671E-16 -6.52998926E-16  2.39642702E-16
  1.97345992E-01  6.66866080E-01  7.18570936E-01  8.49973459E-18  1.92354887E-16
 -4.31307508E-16  2.75207353E-16 -3.50745418E-01 -6.36436312E-01  6.86969047E-01
  2.49960826E-17  7.17030327E-17  2.02662040E-17 -1.22484890E-16  9.15440993E-01
 -3.87606052E-01  1.08302067E-01 -1.58047481E+00  2.27396629E+00 -1.58192604E+00
  5.63712714E-01  1.72617039E-18  1.90419566E-18  3.51169940E-18
Beta MO coefficients                       R   N=          49
  8.89926427E-02  1.81279145E-01  4.25498217E-02  8.33209489E-01 -1.02612335E-16
 -1.09241510E-16 -9.58715816E-17  1.43869606E-01 -3.96949764E-02  1.65281734E+00
 -1.57088038E+00  7.91864521E-18 -1.09304755E-17  1.74720764E-17 -1.04490828E-01
 -1.74842121E+00  2.45388079E+00 -1.04770312E+00 -5.75794232E-17 -5.64330036E-17
 -2.53681438E-17 -9.46414276E-18 -1.38379138E-16  2.09766625E-16 -1.07488081E-16
 -1.16706138E-01 -1.00020495E-01  9.88117188E-01  9.63945117E-18  3.52100427E-16
 -4.70221207E-16 -1.12565329E-16  9.93068563E-01  2.21898588E-03  1.17515556E-01
  1.65335922E-17 -3.40080343E-16  8.31408743E-16 -4.75088027E-16 -1.39465822E-02
  9.94982903E-01  9.90682402E-02 -1.59753690E+00  2.15169950E+00 -1.44601859E+00
  5.10327071E-01  1.00631052E-18  1.87521076E-19 -2.07490400E-18
Total SCF Density                          R   N=          28
  6.15171240E-02  1.18284367E-01  2.27435720E-01  9.49110941E-02  1.82493880E-01
  1.46432655E-01  8.02478106E-03  1.54299500E-02  1.23809551E-02  1.04681602E-03
 -6.99734100E-18 -1.34544009E-17 -1.07957792E-17 -9.12788601E-19  7.95921166E-34
 -1.28109358E-17 -2.46327092E-17 -1.97652272E-17 -1.67115997E-18  1.45719566E-33
  2.66787628E-33  3.07695431E-17  5.91632978E-17  4.74724892E-17  4.01382300E-18
 -3.49991957E-33 -6.40775473E-33  1.53902641E-32
Spin SCF Density                           R   N=          28
  6.15171240E-02  1.18284367E-01  2.27435720E-01  9.49110941E-02  1.82493880E-01
  1.46432655E-01  8.02478106E-03  1.54299500E-02  1.23809551E-02  1.04681602E-03
 -6.99734100E-18 -1.34544009E-17 -1.07957792E-17 -9.12788601E-19  7.95921166E-34
 -1.28109358E-17 -2.46327092E-17 -1.97652272E-17 -1.67115997E-18  1.45719566E-33
  2.66787628E-33  3.07695431E-17  5.91632978E-17  4.74724892E-17  4.01382300E-18
 -3.49991957E-33 -6.40775473E-33  1.53902641E-32
Cartesian Gradient                         R   N=           3
  0.00000000E+00  0.00000000E+00  0.00000000E+00
Dipole Moment                              R   N=           3
  3.65869989E-17  6.69845437E-17 -1.60884719E-16
