P                                                                       
SP        UB3LYP                                                      6-31G(d)            
Number of atoms                            I                1
Charge                                     I                0
Multiplicity                               I                4
Number of electrons                        I               15
Number of alpha electrons                  I                9
Number of beta electrons                   I                6
Number of basis functions                  I               18
Number of independant functions            I               18
Number of point charges in /Mol/           I                0
Number of translation vectors              I                0
Info1-9                                    I   N=           9
           8           8           0           0           0         110
           1          18        -502
Num ILSW                                   I              100
ILSW                                       I   N=         100
           1           0           0           0           2           0
           0           0           0           0         402      200000
           0           0           0           0           0           0
           0      800000           0           0           0           0
           1           0           0           0     1000000           0
           0           0           0           0          -1           0
           0           0           0           0           0           0
           0           0           0           1           0           0
           0           0           1      720000      810000           0
           0           0           0           0           0           0
           0           0           0           0           0           0
           0           0           0           0           0           0
           0           0           0           0           0           0
           0           0           0           0           0           0
           0           0           0           0           0           0
           0           0           0           0           0           0
           0           0           0           0
Number of contracted shells                I                5
Highest angular momentum                   I                2
Largest degree of contraction              I                6
Number of primitive shells                 I               17
Pure/Cartesian d shells                    I                0
Pure/Cartesian f shells                    I                0
Virial Ratio                               R      2.002011990770603E+00
SCF Energy                                 R     -3.412553445794766E+02
Total Energy                               R     -3.412553445794766E+02
S**2                                       R      3.750307803711782E+00
S**2 after annihilation                    R      3.750000000014021E+00
RMS Density                                R      3.060344354242328E-05
Atomic numbers                             I   N=           1
          15
Nuclear charges                            R   N=           1
  1.50000000E+01
Current cartesian coordinates              R   N=           3
  0.00000000E+00  0.00000000E+00  0.00000000E+00
Int Atom Types                             I   N=           1
           0
Force Field                                I                0
MM charges                                 R   N=           1
  0.00000000E+00
Integer atomic weights                     I   N=           1
          31
Real atomic weights                        R   N=           1
  3.09737634E+01
Atom residue info                          I   N=           1
           0
Atom fragment info                         I   N=           1
           0
Atom residue num                           I   N=           1
           0
Nuclear spins                              I   N=           1
           1
Nuclear ZEff                               R   N=           1
 -1.29400000E+01
Nuclear QMom                               R   N=           1
  0.00000000E+00
Nuclear GFac                               R   N=           1
  1.13160000E+00
MicOpt                                     I   N=           1
           0
Constraint Structure                       R   N=           3
  0.00000000E+00  0.00000000E+00  0.00000000E+00
ONIOM Charges                              I   N=          16
           0           0           0           0           0           0
           0           0           0           0           0           0
           0           0           0           0
ONIOM Multiplicities                       I   N=          16
           4           0           0           0           0           0
           0           0           0           0           0           0
           0           0           0           0
Atom Layers                                I   N=           1
           1
Atom Modifiers                             I   N=           1
           0
Int Atom Modified Types                    I   N=           1
           0
Link Atoms                                 I   N=           1
           0
Atom Modified MM Charges                   R   N=           1
  0.00000000E+00
Link Distances                             R   N=           4
  0.00000000E+00  0.00000000E+00  0.00000000E+00  0.00000000E+00
MxBond                                     I                1
NBond                                      I   N=           1
           0
IBond                                      I   N=           1
           0
RBond                                      R   N=           1
  0.00000000E+00
Shell types                                I   N=           5
           0          -1          -1          -1          -2
Number of primitives per shell             I   N=           5
           6           6           3           1           1
Shell to atom map                          I   N=           5
           1           1           1           1           1
Primitive exponents                        R   N=          17
  1.94133000E+04  2.90942000E+03  6.61364000E+02  1.85759000E+02  5.91943000E+01
  2.00310000E+01  3.39478000E+02  8.10101000E+01  2.58780000E+01  9.45221000E+00
  3.66566000E+00  1.46746000E+00  2.15623000E+00  7.48997000E-01  2.83145000E-01
  9.98317000E-02  5.50000000E-01
Contraction coefficients                   R   N=          17
  1.85159892E-03  1.42061917E-02  6.99994593E-02  2.40078860E-01  4.84761718E-01
  3.35199805E-01 -2.78217010E-03 -3.60499014E-02 -1.16631004E-01  9.68328036E-02
  6.14418023E-01  4.03798015E-01 -2.52924114E-01  3.28518447E-02  1.08125476E+00
  1.00000000E+00  1.00000000E+00
P(S=P) Contraction coefficients            R   N=          17
  0.00000000E+00  0.00000000E+00  0.00000000E+00  0.00000000E+00  0.00000000E+00
  0.00000000E+00  4.56461619E-03  3.36935719E-02  1.39754883E-01  3.39361717E-01
  4.50920624E-01  2.38585801E-01 -1.77653127E-02  2.74058196E-01  7.85421563E-01
  1.00000000E+00  0.00000000E+00
Coordinates of each shell                  R   N=          15
  0.00000000E+00  0.00000000E+00  0.00000000E+00  0.00000000E+00  0.00000000E+00
  0.00000000E+00  0.00000000E+00  0.00000000E+00  0.00000000E+00  0.00000000E+00
  0.00000000E+00  0.00000000E+00  0.00000000E+00  0.00000000E+00  0.00000000E+00
Alpha Orbital Energies                     R   N=          18
 -7.71014201E+01 -6.58487190E+00 -4.74765668E+00 -4.74765668E+00 -4.74765668E+00
 -5.97330225E-01 -2.58561959E-01 -2.58561959E-01 -2.58561959E-01  2.15977042E-01
  2.92433396E-01  2.92433396E-01  2.92433396E-01  6.23689067E-01  6.23689067E-01
  6.23689067E-01  6.23689067E-01  6.23689067E-01
Beta Orbital Energies                      R   N=          18
 -7.70890025E+01 -6.57211426E+00 -4.72875277E+00 -4.72875277E+00 -4.72875277E+00
 -4.80617936E-01 -1.12882429E-01 -1.12882429E-01 -1.12882429E-01  2.53390291E-01
  3.36226619E-01  3.36226619E-01  3.36226619E-01  7.23049018E-01  7.23049018E-01
  7.23049018E-01  7.23049018E-01  7.23049018E-01
Alpha MO coefficients                      R   N=         324
  9.96778540E-01  1.21156683E-02  0.00000000E+00  0.00000000E+00  0.00000000E+00
 -3.95680170E-03  0.00000000E+00  0.00000000E+00  0.00000000E+00  1.98132132E-03
  0.00000000E+00  0.00000000E+00  0.00000000E+00  3.89699335E-16  0.00000000E+00
  0.00000000E+00 -4.77116085E-17  0.00000000E+00 -2.75324495E-01  1.02754888E+00
  0.00000000E+00  0.00000000E+00  0.00000000E+00  3.06687707E-02  0.00000000E+00
  0.00000000E+00  0.00000000E+00 -1.10382343E-02  0.00000000E+00  0.00000000E+00
  0.00000000E+00  1.77441326E-16  0.00000000E+00  0.00000000E+00 -1.11437439E-16
  0.00000000E+00  0.00000000E+00  0.00000000E+00  9.92039232E-01  0.00000000E+00
  0.00000000E+00  0.00000000E+00  2.78539530E-02  0.00000000E+00  0.00000000E+00
  0.00000000E+00 -7.83224718E-03  0.00000000E+00  0.00000000E+00  0.00000000E+00
  0.00000000E+00  0.00000000E+00  0.00000000E+00  0.00000000E+00  0.00000000E+00
  0.00000000E+00  0.00000000E+00  0.00000000E+00  9.92039232E-01  0.00000000E+00
  0.00000000E+00  0.00000000E+00  2.78539530E-02  0.00000000E+00  0.00000000E+00
  0.00000000E+00 -7.83224718E-03  0.00000000E+00  0.00000000E+00  0.00000000E+00
  0.00000000E+00  0.00000000E+00  0.00000000E+00  0.00000000E+00  0.00000000E+00
  9.92039232E-01  0.00000000E+00  0.00000000E+00  0.00000000E+00  2.78539530E-02
  0.00000000E+00  0.00000000E+00  0.00000000E+00 -7.83224718E-03  0.00000000E+00
  0.00000000E+00  0.00000000E+00  0.00000000E+00  0.00000000E+00  0.00000000E+00
  7.71244702E-02 -3.50997707E-01  0.00000000E+00  0.00000000E+00  0.00000000E+00
  7.45694440E-01  0.00000000E+00  0.00000000E+00  0.00000000E+00  3.42582473E-01
  0.00000000E+00  0.00000000E+00  0.00000000E+00  1.92038447E-16  0.00000000E+00
  0.00000000E+00 -7.09173707E-16  0.00000000E+00  0.00000000E+00  0.00000000E+00
  0.00000000E+00  0.00000000E+00 -2.58355495E-01  0.00000000E+00  0.00000000E+00
  0.00000000E+00  7.02593903E-01  0.00000000E+00  0.00000000E+00  0.00000000E+00
  4.19751197E-01  0.00000000E+00  0.00000000E+00  0.00000000E+00  0.00000000E+00
  0.00000000E+00  0.00000000E+00  0.00000000E+00  0.00000000E+00 -2.58355495E-01
  0.00000000E+00  0.00000000E+00  0.00000000E+00  7.02593903E-01  0.00000000E+00
  0.00000000E+00  0.00000000E+00  4.19751197E-01  0.00000000E+00  0.00000000E+00
  0.00000000E+00  0.00000000E+00  0.00000000E+00  0.00000000E+00  0.00000000E+00
  0.00000000E+00 -2.58355495E-01  0.00000000E+00  0.00000000E+00  0.00000000E+00
  7.02593903E-01  0.00000000E+00  0.00000000E+00  0.00000000E+00  4.19751197E-01
  0.00000000E+00  0.00000000E+00  0.00000000E+00  0.00000000E+00  0.00000000E+00
  0.00000000E+00  0.00000000E+00 -7.27321696E-02  9.37456311E-02  0.00000000E+00
  0.00000000E+00  0.00000000E+00 -1.72351941E+00  0.00000000E+00  0.00000000E+00
  0.00000000E+00  1.81254997E+00  0.00000000E+00  0.00000000E+00  0.00000000E+00
 -1.23562763E-15  0.00000000E+00  0.00000000E+00 -1.19863364E-14  0.00000000E+00
  0.00000000E+00  0.00000000E+00  0.00000000E+00  0.00000000E+00  2.80707129E-01
  0.00000000E+00  0.00000000E+00  0.00000000E+00 -1.21709967E+00  0.00000000E+00
  0.00000000E+00  0.00000000E+00  1.27837401E+00  0.00000000E+00  0.00000000E+00
  0.00000000E+00  0.00000000E+00  0.00000000E+00  0.00000000E+00  0.00000000E+00
  0.00000000E+00  2.80707129E-01  0.00000000E+00  0.00000000E+00  0.00000000E+00
 -1.21709967E+00  0.00000000E+00  0.00000000E+00  0.00000000E+00  1.27837401E+00
  0.00000000E+00  0.00000000E+00  0.00000000E+00  0.00000000E+00  0.00000000E+00
  0.00000000E+00  0.00000000E+00  0.00000000E+00  2.80707129E-01  0.00000000E+00
  0.00000000E+00  0.00000000E+00 -1.21709967E+00  0.00000000E+00  0.00000000E+00
  0.00000000E+00  1.27837401E+00  0.00000000E+00  0.00000000E+00  0.00000000E+00
  0.00000000E+00  0.00000000E+00  0.00000000E+00  0.00000000E+00  5.05940047E-17
 -1.59779615E-16  0.00000000E+00  0.00000000E+00  0.00000000E+00  1.22712343E-15
  0.00000000E+00  0.00000000E+00  0.00000000E+00 -1.09628098E-15  0.00000000E+00
  0.00000000E+00  0.00000000E+00  9.93172430E-01  0.00000000E+00  0.00000000E+00
 -1.16655581E-01  0.00000000E+00  0.00000000E+00  0.00000000E+00  0.00000000E+00
  0.00000000E+00  0.00000000E+00  0.00000000E+00  0.00000000E+00  0.00000000E+00
  0.00000000E+00  0.00000000E+00  0.00000000E+00  0.00000000E+00  0.00000000E+00
  0.00000000E+00  1.00000000E+00  0.00000000E+00  0.00000000E+00  0.00000000E+00
  0.00000000E+00  0.00000000E+00  0.00000000E+00  0.00000000E+00  0.00000000E+00
  0.00000000E+00  0.00000000E+00  0.00000000E+00  0.00000000E+00  0.00000000E+00
  0.00000000E+00  0.00000000E+00  0.00000000E+00  0.00000000E+00  0.00000000E+00
  0.00000000E+00  0.00000000E+00  1.00000000E+00  0.00000000E+00  0.00000000E+00
  0.00000000E+00  0.00000000E+00  0.00000000E+00  0.00000000E+00  0.00000000E+00
  0.00000000E+00  0.00000000E+00  0.00000000E+00  0.00000000E+00  0.00000000E+00
  0.00000000E+00  0.00000000E+00  0.00000000E+00  1.00000000E+00  0.00000000E+00
  0.00000000E+00 -1.29475982E-15  1.58431383E-15  0.00000000E+00  0.00000000E+00
  0.00000000E+00 -2.89990920E-14  0.00000000E+00  0.00000000E+00  0.00000000E+00
  3.03513205E-14  0.00000000E+00  0.00000000E+00  0.00000000E+00  1.16655581E-01
  0.00000000E+00  0.00000000E+00  9.93172430E-01  0.00000000E+00
Beta MO coefficients                       R   N=         324
  9.96800650E-01  1.20343075E-02  0.00000000E+00  0.00000000E+00  0.00000000E+00
 -3.90371820E-03  0.00000000E+00  0.00000000E+00  0.00000000E+00  1.96040322E-03
  0.00000000E+00  0.00000000E+00  0.00000000E+00 -1.27639061E-16  0.00000000E+00
  0.00000000E+00  6.72256831E-16  0.00000000E+00 -2.75367906E-01  1.02798941E+00
  0.00000000E+00  0.00000000E+00  0.00000000E+00  2.93473307E-02  0.00000000E+00
  0.00000000E+00  0.00000000E+00 -1.09867009E-02  0.00000000E+00  0.00000000E+00
  0.00000000E+00 -2.90833413E-17  0.00000000E+00  0.00000000E+00 -1.02442321E-16
  0.00000000E+00  0.00000000E+00  0.00000000E+00  0.00000000E+00  0.00000000E+00
  9.92224743E-01  0.00000000E+00  0.00000000E+00  0.00000000E+00  2.72961367E-02
  0.00000000E+00  0.00000000E+00  0.00000000E+00 -7.93200092E-03  0.00000000E+00
  0.00000000E+00  0.00000000E+00  0.00000000E+00  0.00000000E+00  0.00000000E+00
  0.00000000E+00  0.00000000E+00  9.92224743E-01  0.00000000E+00  0.00000000E+00
  0.00000000E+00  2.72961367E-02  0.00000000E+00  0.00000000E+00  0.00000000E+00
 -7.93200092E-03  0.00000000E+00  0.00000000E+00  0.00000000E+00  0.00000000E+00
  0.00000000E+00  0.00000000E+00  0.00000000E+00  0.00000000E+00  9.92224743E-01
  0.00000000E+00  0.00000000E+00  0.00000000E+00  2.72961367E-02  0.00000000E+00
  0.00000000E+00  0.00000000E+00 -7.93200092E-03  0.00000000E+00  0.00000000E+00
  0.00000000E+00  0.00000000E+00  0.00000000E+00  0.00000000E+00  0.00000000E+00
  7.54793388E-02 -3.48084004E-01  0.00000000E+00  0.00000000E+00  0.00000000E+00
  7.15382736E-01  0.00000000E+00  0.00000000E+00  0.00000000E+00  3.74310970E-01
  0.00000000E+00  0.00000000E+00  0.00000000E+00 -8.18052451E-17  0.00000000E+00
  0.00000000E+00 -2.48861005E-15  0.00000000E+00  0.00000000E+00  0.00000000E+00
  0.00000000E+00  0.00000000E+00 -2.31972710E-01  0.00000000E+00  0.00000000E+00
  0.00000000E+00  5.92344577E-01  0.00000000E+00  0.00000000E+00  0.00000000E+00
  5.31036974E-01  0.00000000E+00  0.00000000E+00  0.00000000E+00  0.00000000E+00
  0.00000000E+00  0.00000000E+00  0.00000000E+00  0.00000000E+00 -2.31972710E-01
  0.00000000E+00  0.00000000E+00  0.00000000E+00  5.92344577E-01  0.00000000E+00
  0.00000000E+00  0.00000000E+00  5.31036974E-01  0.00000000E+00  0.00000000E+00
  0.00000000E+00  0.00000000E+00  0.00000000E+00  0.00000000E+00  0.00000000E+00
  0.00000000E+00 -2.31972710E-01  0.00000000E+00  0.00000000E+00  0.00000000E+00
  5.92344577E-01  0.00000000E+00  0.00000000E+00  0.00000000E+00  5.31036974E-01
  0.00000000E+00  0.00000000E+00  0.00000000E+00  0.00000000E+00  0.00000000E+00
  0.00000000E+00  0.00000000E+00 -7.39799740E-02  9.96071759E-02  0.00000000E+00
  0.00000000E+00  0.00000000E+00 -1.73634288E+00  0.00000000E+00  0.00000000E+00
  0.00000000E+00  1.80626483E+00  0.00000000E+00  0.00000000E+00  0.00000000E+00
 -1.07868763E-15  0.00000000E+00  0.00000000E+00 -1.12743534E-14  0.00000000E+00
  0.00000000E+00  0.00000000E+00  0.00000000E+00  0.00000000E+00 -3.02265800E-01
  0.00000000E+00  0.00000000E+00  0.00000000E+00  1.27441299E+00  0.00000000E+00
  0.00000000E+00  0.00000000E+00 -1.23629662E+00  0.00000000E+00  0.00000000E+00
  0.00000000E+00  0.00000000E+00  0.00000000E+00  0.00000000E+00  0.00000000E+00
  0.00000000E+00 -3.02265800E-01  0.00000000E+00  0.00000000E+00  0.00000000E+00
  1.27441299E+00  0.00000000E+00  0.00000000E+00  0.00000000E+00 -1.23629662E+00
  0.00000000E+00  0.00000000E+00  0.00000000E+00  0.00000000E+00  0.00000000E+00
  0.00000000E+00  0.00000000E+00  0.00000000E+00 -3.02265800E-01  0.00000000E+00
  0.00000000E+00  0.00000000E+00  1.27441299E+00  0.00000000E+00  0.00000000E+00
  0.00000000E+00 -1.23629662E+00  0.00000000E+00  0.00000000E+00  0.00000000E+00
  0.00000000E+00  0.00000000E+00  0.00000000E+00  0.00000000E+00  8.24946935E-17
 -1.78598029E-16  0.00000000E+00  0.00000000E+00  0.00000000E+00  1.72983253E-15
  0.00000000E+00  0.00000000E+00  0.00000000E+00 -1.49752301E-15  0.00000000E+00
  0.00000000E+00  0.00000000E+00  9.91835675E-01  0.00000000E+00  0.00000000E+00
 -1.27522519E-01  0.00000000E+00  0.00000000E+00  0.00000000E+00  0.00000000E+00
  0.00000000E+00  0.00000000E+00  0.00000000E+00  0.00000000E+00  0.00000000E+00
  0.00000000E+00  0.00000000E+00  0.00000000E+00  0.00000000E+00  0.00000000E+00
  0.00000000E+00  0.00000000E+00  0.00000000E+00  0.00000000E+00  1.00000000E+00
  0.00000000E+00  0.00000000E+00  0.00000000E+00  0.00000000E+00  0.00000000E+00
  0.00000000E+00  0.00000000E+00  0.00000000E+00  0.00000000E+00  0.00000000E+00
  0.00000000E+00  0.00000000E+00  0.00000000E+00  0.00000000E+00  1.00000000E+00
  0.00000000E+00  0.00000000E+00  0.00000000E+00  0.00000000E+00  0.00000000E+00
  0.00000000E+00  0.00000000E+00  0.00000000E+00  0.00000000E+00  0.00000000E+00
  0.00000000E+00  0.00000000E+00  0.00000000E+00  0.00000000E+00  0.00000000E+00
  0.00000000E+00  0.00000000E+00  0.00000000E+00  1.00000000E+00  0.00000000E+00
  0.00000000E+00 -9.89218451E-16  1.13825793E-15  0.00000000E+00  0.00000000E+00
  0.00000000E+00 -2.73466546E-14  0.00000000E+00  0.00000000E+00  0.00000000E+00
  3.04406789E-14  0.00000000E+00  0.00000000E+00  0.00000000E+00  1.27522519E-01
  0.00000000E+00  0.00000000E+00  9.91835675E-01  0.00000000E+00
Total SCF Density                          R   N=         171
  2.15045537E+00 -5.95255887E-01  2.35727242E+00  0.00000000E+00  0.00000000E+00
  2.03539934E+00  0.00000000E+00  0.00000000E+00  6.42955826E-18  2.03539934E+00
  0.00000000E+00  0.00000000E+00 -5.74683434E-20  2.00679455E-18  2.03539934E+00
  8.71474439E-02 -4.49162837E-01  0.00000000E+00  0.00000000E+00  0.00000000E+00
  1.06966539E+00  0.00000000E+00  0.00000000E+00 -1.26802879E-01 -4.00553583E-19
  3.58020722E-21  0.00000000E+00  4.95159114E-01  0.00000000E+00  0.00000000E+00
 -4.00553583E-19 -1.26802879E-01 -1.25020836E-19  0.00000000E+00  1.56414238E-18
  4.95159114E-01  0.00000000E+00  0.00000000E+00  3.58020722E-21 -1.25020836E-19
 -1.26802879E-01  0.00000000E+00 -1.39805361E-20  4.88200321E-19  4.95159114E-01
  6.46677871E-02 -2.73126264E-01  0.00000000E+00  0.00000000E+00  0.00000000E+00
  5.22561000E-01  0.00000000E+00  0.00000000E+00  0.00000000E+00  2.57721772E-01
  0.00000000E+00  0.00000000E+00 -1.24085252E-01 -3.91968958E-19  3.50347657E-21
  0.00000000E+00  2.94479959E-01  9.30223381E-19 -8.31447426E-21  0.00000000E+00
  1.76315328E-01  0.00000000E+00  0.00000000E+00 -3.91968958E-19 -1.24085252E-01
 -1.22341402E-19  0.00000000E+00  9.30223381E-19  2.94479959E-01  2.90341441E-19
  0.00000000E+00  5.56956883E-19  1.76315328E-01  0.00000000E+00  0.00000000E+00
  3.50347657E-21 -1.22341402E-19 -1.24085252E-01  0.00000000E+00 -8.31447426E-21
  2.90341441E-19  2.94479959E-01  0.00000000E+00 -4.97816306E-21  1.73837454E-19
  1.76315328E-01 -4.12576993E-32 -1.95348144E-32  0.00000000E+00  0.00000000E+00
  0.00000000E+00  2.01152683E-32  0.00000000E+00  0.00000000E+00  0.00000000E+00
 -1.74617648E-32  0.00000000E+00  0.00000000E+00  0.00000000E+00  3.70864257E-30
 -3.88600030E-33 -7.88931952E-33  0.00000000E+00  0.00000000E+00  0.00000000E+00
  2.01407037E-32  0.00000000E+00  0.00000000E+00  0.00000000E+00  1.01767436E-32
  0.00000000E+00  0.00000000E+00  0.00000000E+00  5.82534759E-47  1.81473536E-61
 -9.46366746E-35  2.73632306E-33  0.00000000E+00  0.00000000E+00  0.00000000E+00
 -1.02326110E-32  0.00000000E+00  0.00000000E+00  0.00000000E+00 -5.08183101E-33
  0.00000000E+00  0.00000000E+00  0.00000000E+00 -1.51516754E-47  8.78225158E-63
  2.29285868E-61 -2.63899518E-32 -3.88714353E-33  0.00000000E+00  0.00000000E+00
  0.00000000E+00 -4.93699660E-32  0.00000000E+00  0.00000000E+00  0.00000000E+00
  3.91401532E-32  0.00000000E+00  0.00000000E+00  0.00000000E+00 -8.89864393E-47
 -3.30257524E-47 -4.68481223E-47  3.70864257E-30  1.80382882E-32  3.55376284E-32
  0.00000000E+00  0.00000000E+00  0.00000000E+00 -8.95228811E-32  0.00000000E+00
  0.00000000E+00  0.00000000E+00 -4.52670938E-32  0.00000000E+00  0.00000000E+00
  0.00000000E+00  5.61279063E-48  1.75965481E-64 -5.92163866E-64 -5.19766112E-47
  2.28216712E-61
Spin SCF Density                           R   N=         171
  1.83068068E-04 -5.50613148E-04  1.13334614E-03  0.00000000E+00  0.00000000E+00
  6.63794596E-02  0.00000000E+00  0.00000000E+00  2.09683964E-19  6.63794596E-02
  0.00000000E+00  0.00000000E+00 -1.87418631E-21  6.54465860E-20  6.63794596E-02
  3.09929569E-03 -1.13797965E-02  0.00000000E+00  0.00000000E+00  0.00000000E+00
  4.43674637E-02  0.00000000E+00  0.00000000E+00 -1.80970684E-01 -5.71662539E-19
  5.10960439E-21  0.00000000E+00  4.93668956E-01  0.00000000E+00  0.00000000E+00
 -5.71662539E-19 -1.80970684E-01 -1.78427385E-19  0.00000000E+00  1.55943517E-18
  4.93668956E-01  0.00000000E+00  0.00000000E+00  5.10960439E-21 -1.78427385E-19
 -1.80970684E-01  0.00000000E+00 -1.39384623E-20  4.86731105E-19  4.93668956E-01
 -1.79673394E-03  9.99829842E-03  0.00000000E+00  0.00000000E+00  0.00000000E+00
 -1.23300458E-02  0.00000000E+00  0.00000000E+00  0.00000000E+00 -2.27447337E-02
  0.00000000E+00  0.00000000E+00 -1.08344597E-01 -3.42246303E-19  3.05904812E-21
  0.00000000E+00  2.94912985E-01  9.31591253E-19 -8.32670051E-21  0.00000000E+00
  1.76189495E-01  0.00000000E+00  0.00000000E+00 -3.42246303E-19 -1.08344597E-01
 -1.06821960E-19  0.00000000E+00  9.31591253E-19  2.94912985E-01  2.90768382E-19
  0.00000000E+00  5.56559393E-19  1.76189495E-01  0.00000000E+00  0.00000000E+00
  3.05904812E-21 -1.06821960E-19 -1.08344597E-01  0.00000000E+00 -8.32670051E-21
  2.90768382E-19  2.94912985E-01  0.00000000E+00 -4.97461023E-21  1.73713389E-19
  1.76189495E-01 -3.47523359E-32  3.44259978E-33  0.00000000E+00  0.00000000E+00
  0.00000000E+00 -1.29251298E-32  0.00000000E+00  0.00000000E+00  0.00000000E+00
 -2.44807095E-32  0.00000000E+00  0.00000000E+00  0.00000000E+00 -2.97079076E-30
  4.92244501E-33  5.49008513E-33  0.00000000E+00  0.00000000E+00  0.00000000E+00
 -1.09695748E-32  0.00000000E+00  0.00000000E+00  0.00000000E+00 -6.00721269E-33
  0.00000000E+00  0.00000000E+00  0.00000000E+00 -4.58935209E-47 -1.42664766E-61
 -6.35437813E-33 -3.61806844E-33  0.00000000E+00  0.00000000E+00  0.00000000E+00
  3.43690804E-33  0.00000000E+00  0.00000000E+00  0.00000000E+00  2.03052603E-33
  0.00000000E+00  0.00000000E+00  0.00000000E+00  7.85478129E-48 -1.47415630E-63
 -1.86061354E-61  1.48258156E-33  7.44533928E-33  0.00000000E+00  0.00000000E+00
  0.00000000E+00  4.52187377E-32  0.00000000E+00  0.00000000E+00  0.00000000E+00
 -3.94366696E-32  0.00000000E+00  0.00000000E+00  0.00000000E+00  1.68248920E-46
  2.31349116E-47  3.71775088E-47 -2.97079076E-30 -2.04538524E-32 -2.40960799E-32
  0.00000000E+00  0.00000000E+00  0.00000000E+00  4.95487859E-32  0.00000000E+00
  0.00000000E+00  0.00000000E+00  2.70792466E-32  0.00000000E+00  0.00000000E+00
  0.00000000E+00 -1.68683101E-47  1.86392945E-65  4.58564780E-64  2.51796200E-47
 -1.86391478E-61
Cartesian Gradient                         R   N=           3
  0.00000000E+00  0.00000000E+00  0.00000000E+00
Dipole Moment                              R   N=           3
  0.00000000E+00  0.00000000E+00  0.00000000E+00
Anisotropic Hyperfine tensors              R   N=           6
  2.51650552E-15  0.00000000E+00 -5.25505565E-15  0.00000000E+00  0.00000000E+00
  2.73855013E-15
Isotropic Hyperfine splittings             R   N=           1
  1.56705198E-01
QEq coupling tensors                       R   N=           6
  0.00000000E+00  0.00000000E+00  0.00000000E+00  0.00000000E+00  0.00000000E+00
  0.00000000E+00
Mulliken Charges                           R   N=           1
  5.32907052E-15
