S                                                                       
SP        UB3LYP                                                      6-31G(d)            
Number of atoms                            I                1
Charge                                     I                0
Multiplicity                               I                3
Number of electrons                        I               16
Number of alpha electrons                  I                9
Number of beta electrons                   I                7
Number of basis functions                  I               18
Number of independant functions            I               18
Number of point charges in /Mol/           I                0
Number of translation vectors              I                0
Info1-9                                    I   N=           9
           8           8           0           0           0         110
           1          18        -502
Num ILSW                                   I              100
ILSW                                       I   N=         100
           1           0           0           0           2           0
           0           0           0           0         402      200000
           0           0           0           0           0           0
           0      800000           0           0           0           0
           1           0           0           0     1000000           0
           0           0           0           0          -1           0
           0           0           0           0           0           0
           0           0           0           1           0           0
           0           0           1      720000      810000           0
           0           0           0           0           0           0
           0           0           0           0           0           0
           0           0           0           0           0           0
           0           0           0           0           0           0
           0           0           0           0           0           0
           0           0           0           0           0           0
           0           0           0           0           0           0
           0           0           0           0
Number of contracted shells                I                5
Highest angular momentum                   I                2
Largest degree of contraction              I                6
Number of primitive shells                 I               17
Pure/Cartesian d shells                    I                0
Pure/Cartesian f shells                    I                0
Virial Ratio                               R      2.001826592513985E+00
SCF Energy                                 R     -3.981019160009004E+02
Total Energy                               R     -3.981019160009004E+02
S**2                                       R      2.002117408739753E+00
S**2 after annihilation                    R      2.000000875095702E+00
RMS Density                                R      2.985590510832286E-05
Atomic numbers                             I   N=           1
          16
Nuclear charges                            R   N=           1
  1.60000000E+01
Current cartesian coordinates              R   N=           3
  0.00000000E+00  0.00000000E+00  0.00000000E+00
Int Atom Types                             I   N=           1
           0
Force Field                                I                0
MM charges                                 R   N=           1
  0.00000000E+00
Integer atomic weights                     I   N=           1
          32
Real atomic weights                        R   N=           1
  3.19720718E+01
Atom residue info                          I   N=           1
           0
Atom fragment info                         I   N=           1
           0
Atom residue num                           I   N=           1
           0
Nuclear spins                              I   N=           1
           0
Nuclear ZEff                               R   N=           1
 -1.36000000E+01
Nuclear QMom                               R   N=           1
  0.00000000E+00
Nuclear GFac                               R   N=           1
  0.00000000E+00
MicOpt                                     I   N=           1
           0
Constraint Structure                       R   N=           3
  0.00000000E+00  0.00000000E+00  0.00000000E+00
ONIOM Charges                              I   N=          16
           0           0           0           0           0           0
           0           0           0           0           0           0
           0           0           0           0
ONIOM Multiplicities                       I   N=          16
           3           0           0           0           0           0
           0           0           0           0           0           0
           0           0           0           0
Atom Layers                                I   N=           1
           1
Atom Modifiers                             I   N=           1
           0
Int Atom Modified Types                    I   N=           1
           0
Link Atoms                                 I   N=           1
           0
Atom Modified MM Charges                   R   N=           1
  0.00000000E+00
Link Distances                             R   N=           4
  0.00000000E+00  0.00000000E+00  0.00000000E+00  0.00000000E+00
MxBond                                     I                1
NBond                                      I   N=           1
           0
IBond                                      I   N=           1
           0
RBond                                      R   N=           1
  0.00000000E+00
Shell types                                I   N=           5
           0          -1          -1          -1          -2
Number of primitives per shell             I   N=           5
           6           6           3           1           1
Shell to atom map                          I   N=           5
           1           1           1           1           1
Primitive exponents                        R   N=          17
  2.19171000E+04  3.30149000E+03  7.54146000E+02  2.12711000E+02  6.79896000E+01
  2.30515000E+01  4.23735000E+02  1.00710000E+02  3.21599000E+01  1.18079000E+01
  4.63110000E+00  1.87025000E+00  2.61584000E+00  9.22167000E-01  3.41287000E-01
  1.17167000E-01  6.50000000E-01
Contraction coefficients                   R   N=          17
  1.86924085E-03  1.42303065E-02  6.96962317E-02  2.38487108E-01  4.83307220E-01
  3.38074154E-01 -2.37677050E-03 -3.16930067E-02 -1.13317024E-01  5.60900118E-02
  5.92255124E-01  4.55006095E-01 -2.50373114E-01  6.69567631E-02  1.05450627E+00
  1.00000000E+00  1.00000000E+00
P(S=P) Contraction coefficients            R   N=          17
  0.00000000E+00  0.00000000E+00  0.00000000E+00  0.00000000E+00  0.00000000E+00
  0.00000000E+00  4.06100998E-03  3.06812999E-02  1.30451999E-01  3.27204999E-01
  4.52850998E-01  2.56041999E-01 -1.45104895E-02  3.10262776E-01  7.54482456E-01
  1.00000000E+00  0.00000000E+00
Coordinates of each shell                  R   N=          15
  0.00000000E+00  0.00000000E+00  0.00000000E+00  0.00000000E+00  0.00000000E+00
  0.00000000E+00  0.00000000E+00  0.00000000E+00  0.00000000E+00  0.00000000E+00
  0.00000000E+00  0.00000000E+00  0.00000000E+00  0.00000000E+00  0.00000000E+00
Alpha Orbital Energies                     R   N=          18
 -8.89159544E+01 -7.99011585E+00 -5.95896416E+00 -5.95896416E+00 -5.93955704E+00
 -7.23160636E-01 -3.32558253E-01 -3.32558253E-01 -2.84357830E-01  2.53564808E-01
  3.26805981E-01  3.26805981E-01  3.53016948E-01  6.81670004E-01  6.81670005E-01
  7.22206294E-01  7.22206294E-01  7.37156154E-01
Beta Orbital Energies                      R   N=          18
 -8.89048988E+01 -7.97923747E+00 -5.93775135E+00 -5.93775135E+00 -5.93306845E+00
 -6.29905543E-01 -2.57026482E-01 -1.75597752E-01 -1.75597752E-01  2.81831099E-01
  3.63617898E-01  3.70102676E-01  3.70102676E-01  7.82894731E-01  7.82894731E-01
  7.85638600E-01  7.95119977E-01  7.95120036E-01
Alpha MO coefficients                      R   N=         324
  9.96627467E-01  1.24974875E-02  0.00000000E+00  0.00000000E+00  0.00000000E+00
 -4.00413143E-03  0.00000000E+00  0.00000000E+00  0.00000000E+00  1.98025893E-03
  0.00000000E+00  0.00000000E+00  0.00000000E+00 -5.91281352E-09  0.00000000E+00
  0.00000000E+00 -1.02412928E-08  0.00000000E+00 -2.80933866E-01  1.02698016E+00
  0.00000000E+00  0.00000000E+00  0.00000000E+00  3.58588007E-02  0.00000000E+00
  0.00000000E+00  0.00000000E+00 -1.27132196E-02  0.00000000E+00  0.00000000E+00
  0.00000000E+00  4.05192314E-04  0.00000000E+00  0.00000000E+00  7.01813675E-04
  0.00000000E+00  0.00000000E+00  0.00000000E+00  9.91002225E-01  0.00000000E+00
  0.00000000E+00  0.00000000E+00  2.99239292E-02  0.00000000E+00  0.00000000E+00
  0.00000000E+00 -8.33573928E-03  0.00000000E+00  0.00000000E+00  0.00000000E+00
  0.00000000E+00  0.00000000E+00  0.00000000E+00  0.00000000E+00  0.00000000E+00
  0.00000000E+00  0.00000000E+00  0.00000000E+00  9.91002225E-01  0.00000000E+00
  0.00000000E+00  0.00000000E+00  2.99239292E-02  0.00000000E+00  0.00000000E+00
  0.00000000E+00 -8.33573928E-03  0.00000000E+00  0.00000000E+00  0.00000000E+00
  0.00000000E+00  0.00000000E+00  0.00000000E+00  0.00000000E+00  0.00000000E+00
  9.91402821E-01  0.00000000E+00  0.00000000E+00  0.00000000E+00  2.86085137E-02
  0.00000000E+00  0.00000000E+00  0.00000000E+00 -7.88123413E-03  0.00000000E+00
  0.00000000E+00  0.00000000E+00  0.00000000E+00  0.00000000E+00  0.00000000E+00
  8.23898964E-02 -3.73096944E-01  0.00000000E+00  0.00000000E+00  0.00000000E+00
  7.90343758E-01  0.00000000E+00  0.00000000E+00  0.00000000E+00  3.02942814E-01
  0.00000000E+00  0.00000000E+00  0.00000000E+00  1.44961429E-02  0.00000000E+00
  0.00000000E+00  2.51080561E-02  0.00000000E+00  0.00000000E+00  0.00000000E+00
  0.00000000E+00  0.00000000E+00 -2.81458391E-01  0.00000000E+00  0.00000000E+00
  0.00000000E+00  7.57767431E-01  0.00000000E+00  0.00000000E+00  0.00000000E+00
  3.70839075E-01  0.00000000E+00  0.00000000E+00  0.00000000E+00  0.00000000E+00
  0.00000000E+00  0.00000000E+00  0.00000000E+00 -2.81458391E-01  0.00000000E+00
  0.00000000E+00  0.00000000E+00  7.57767431E-01  0.00000000E+00  0.00000000E+00
  0.00000000E+00  3.70839075E-01  0.00000000E+00  0.00000000E+00  0.00000000E+00
  0.00000000E+00  0.00000000E+00  0.00000000E+00  0.00000000E+00  0.00000000E+00
  0.00000000E+00  0.00000000E+00 -2.73605869E-01  0.00000000E+00  0.00000000E+00
  0.00000000E+00  7.29147832E-01  0.00000000E+00  0.00000000E+00  0.00000000E+00
  4.01831097E-01  0.00000000E+00  0.00000000E+00  0.00000000E+00  0.00000000E+00
  0.00000000E+00  0.00000000E+00 -7.44468108E-02  1.24985581E-01  0.00000000E+00
  0.00000000E+00  0.00000000E+00 -1.65480906E+00  0.00000000E+00  0.00000000E+00
  0.00000000E+00  1.76243874E+00  0.00000000E+00  0.00000000E+00  0.00000000E+00
 -1.11257519E-02  0.00000000E+00  0.00000000E+00 -1.92703675E-02  0.00000000E+00
  0.00000000E+00  0.00000000E+00  0.00000000E+00  0.00000000E+00  2.81871027E-01
  0.00000000E+00  0.00000000E+00  0.00000000E+00 -1.14937995E+00  0.00000000E+00
  0.00000000E+00  0.00000000E+00  1.25861659E+00  0.00000000E+00  0.00000000E+00
  0.00000000E+00  0.00000000E+00  0.00000000E+00  0.00000000E+00  0.00000000E+00
  2.81871027E-01  0.00000000E+00  0.00000000E+00  0.00000000E+00 -1.14937995E+00
  0.00000000E+00  0.00000000E+00  0.00000000E+00  1.25861659E+00  0.00000000E+00
  0.00000000E+00  0.00000000E+00  0.00000000E+00  0.00000000E+00  0.00000000E+00
  0.00000000E+00  0.00000000E+00  0.00000000E+00  0.00000000E+00  2.88124604E-01
  0.00000000E+00  0.00000000E+00  0.00000000E+00 -1.16777831E+00  0.00000000E+00
  0.00000000E+00  0.00000000E+00  1.24907025E+00  0.00000000E+00  0.00000000E+00
  0.00000000E+00  0.00000000E+00  0.00000000E+00  0.00000000E+00  1.88381911E-15
 -2.44077331E-15  0.00000000E+00  0.00000000E+00  0.00000000E+00  3.71582221E-14
  0.00000000E+00  0.00000000E+00  0.00000000E+00 -4.23189042E-14  0.00000000E+00
  0.00000000E+00  0.00000000E+00  8.66025404E-01  0.00000000E+00  0.00000000E+00
 -5.00000000E-01  0.00000000E+00  0.00000000E+00  0.00000000E+00  0.00000000E+00
  0.00000000E+00  0.00000000E+00  0.00000000E+00  0.00000000E+00  0.00000000E+00
  0.00000000E+00  0.00000000E+00  0.00000000E+00  0.00000000E+00  0.00000000E+00
  0.00000000E+00  1.00000000E+00  0.00000000E+00  0.00000000E+00  0.00000000E+00
  0.00000000E+00  0.00000000E+00  0.00000000E+00  0.00000000E+00  0.00000000E+00
  0.00000000E+00  0.00000000E+00  0.00000000E+00  0.00000000E+00  0.00000000E+00
  0.00000000E+00  0.00000000E+00  0.00000000E+00  0.00000000E+00  0.00000000E+00
  1.00000000E+00  0.00000000E+00  0.00000000E+00  0.00000000E+00  0.00000000E+00
  0.00000000E+00  0.00000000E+00  0.00000000E+00  0.00000000E+00  0.00000000E+00
  0.00000000E+00  0.00000000E+00  0.00000000E+00  0.00000000E+00  0.00000000E+00
  0.00000000E+00  0.00000000E+00  0.00000000E+00  0.00000000E+00  0.00000000E+00
  1.00000000E+00 -3.82010198E-03  1.27743399E-02  0.00000000E+00  0.00000000E+00
  0.00000000E+00 -5.98048950E-02  0.00000000E+00  0.00000000E+00  0.00000000E+00
  3.04645725E-02  0.00000000E+00  0.00000000E+00  0.00000000E+00  4.99665804E-01
  0.00000000E+00  0.00000000E+00  8.65446559E-01  0.00000000E+00
Beta MO coefficients                       R   N=         324
  9.96644344E-01  1.24360423E-02  0.00000000E+00  0.00000000E+00  0.00000000E+00
 -3.96344960E-03  0.00000000E+00  0.00000000E+00  0.00000000E+00  1.96399565E-03
  0.00000000E+00  0.00000000E+00  0.00000000E+00  2.03118885E-06  0.00000000E+00
  0.00000000E+00  3.51812229E-06  0.00000000E+00 -2.80982350E-01  1.02736950E+00
  0.00000000E+00  0.00000000E+00  0.00000000E+00  3.46882714E-02  0.00000000E+00
  0.00000000E+00  0.00000000E+00 -1.25643492E-02  0.00000000E+00  0.00000000E+00
  0.00000000E+00  6.10473324E-05  0.00000000E+00  0.00000000E+00  1.05737081E-04
  0.00000000E+00  0.00000000E+00  0.00000000E+00  9.91186870E-01  0.00000000E+00
  0.00000000E+00  0.00000000E+00  2.93746512E-02  0.00000000E+00  0.00000000E+00
  0.00000000E+00 -8.36312826E-03  0.00000000E+00  0.00000000E+00  0.00000000E+00
  0.00000000E+00  0.00000000E+00  0.00000000E+00  0.00000000E+00  0.00000000E+00
  0.00000000E+00  0.00000000E+00  0.00000000E+00  9.91186870E-01  0.00000000E+00
  0.00000000E+00  0.00000000E+00  2.93746512E-02  0.00000000E+00  0.00000000E+00
  0.00000000E+00 -8.36312826E-03  0.00000000E+00  0.00000000E+00  0.00000000E+00
  0.00000000E+00  0.00000000E+00  0.00000000E+00  0.00000000E+00  0.00000000E+00
  9.91505590E-01  0.00000000E+00  0.00000000E+00  0.00000000E+00  2.82941142E-02
  0.00000000E+00  0.00000000E+00  0.00000000E+00 -7.86325341E-03  0.00000000E+00
  0.00000000E+00  0.00000000E+00  0.00000000E+00  0.00000000E+00  0.00000000E+00
  8.09726961E-02 -3.70271185E-01  0.00000000E+00  0.00000000E+00  0.00000000E+00
  7.65282790E-01  0.00000000E+00  0.00000000E+00  0.00000000E+00  3.29931693E-01
  0.00000000E+00  0.00000000E+00  0.00000000E+00 -5.24514574E-03  0.00000000E+00
  0.00000000E+00 -9.08485891E-03  0.00000000E+00  0.00000000E+00  0.00000000E+00
  0.00000000E+00 -2.68099325E-01  0.00000000E+00  0.00000000E+00  0.00000000E+00
  7.07973887E-01  0.00000000E+00  0.00000000E+00  0.00000000E+00  4.24292807E-01
  0.00000000E+00  0.00000000E+00  0.00000000E+00  0.00000000E+00  0.00000000E+00
  0.00000000E+00  0.00000000E+00  0.00000000E+00 -2.57820537E-01  0.00000000E+00
  0.00000000E+00  0.00000000E+00  6.64679865E-01  0.00000000E+00  0.00000000E+00
  0.00000000E+00  4.69038813E-01  0.00000000E+00  0.00000000E+00  0.00000000E+00
  0.00000000E+00  0.00000000E+00  0.00000000E+00  0.00000000E+00  0.00000000E+00
  0.00000000E+00  0.00000000E+00  0.00000000E+00 -2.57820537E-01  0.00000000E+00
  0.00000000E+00  0.00000000E+00  6.64679865E-01  0.00000000E+00  0.00000000E+00
  0.00000000E+00  4.69038813E-01  0.00000000E+00  0.00000000E+00  0.00000000E+00
  0.00000000E+00  0.00000000E+00 -7.56738062E-02  1.30647855E-01  0.00000000E+00
  0.00000000E+00  0.00000000E+00 -1.66760826E+00  0.00000000E+00  0.00000000E+00
  0.00000000E+00  1.75785140E+00  0.00000000E+00  0.00000000E+00  0.00000000E+00
  8.88940327E-04  0.00000000E+00  0.00000000E+00  1.53968981E-03  0.00000000E+00
  0.00000000E+00  0.00000000E+00  0.00000000E+00  2.92907713E-01  0.00000000E+00
  0.00000000E+00  0.00000000E+00 -1.18074282E+00  0.00000000E+00  0.00000000E+00
  0.00000000E+00  1.24162016E+00  0.00000000E+00  0.00000000E+00  0.00000000E+00
  0.00000000E+00  0.00000000E+00  0.00000000E+00  0.00000000E+00  0.00000000E+00
  3.03039060E-01  0.00000000E+00  0.00000000E+00  0.00000000E+00 -1.20561976E+00
  0.00000000E+00  0.00000000E+00  0.00000000E+00  1.22541401E+00  0.00000000E+00
  0.00000000E+00  0.00000000E+00  0.00000000E+00  0.00000000E+00  0.00000000E+00
  0.00000000E+00  0.00000000E+00  0.00000000E+00  0.00000000E+00  0.00000000E+00
  3.03039060E-01  0.00000000E+00  0.00000000E+00  0.00000000E+00 -1.20561976E+00
  0.00000000E+00  0.00000000E+00  0.00000000E+00  1.22541401E+00  0.00000000E+00
  0.00000000E+00  0.00000000E+00  0.00000000E+00  0.00000000E+00  0.00000000E+00
  0.00000000E+00  0.00000000E+00  0.00000000E+00  0.00000000E+00  0.00000000E+00
  0.00000000E+00  0.00000000E+00  0.00000000E+00  0.00000000E+00  0.00000000E+00
  0.00000000E+00  0.00000000E+00  0.00000000E+00  0.00000000E+00  0.00000000E+00
  0.00000000E+00  1.00000000E+00  0.00000000E+00  0.00000000E+00  0.00000000E+00
  0.00000000E+00  0.00000000E+00  0.00000000E+00  0.00000000E+00  0.00000000E+00
  0.00000000E+00  0.00000000E+00  0.00000000E+00  0.00000000E+00  0.00000000E+00
  0.00000000E+00  0.00000000E+00  1.00000000E+00  0.00000000E+00  0.00000000E+00
  1.01428130E-03 -4.24225597E-03  0.00000000E+00  0.00000000E+00  0.00000000E+00
  1.09892510E-02  0.00000000E+00  0.00000000E+00  0.00000000E+00  3.37374792E-04
  0.00000000E+00  0.00000000E+00  0.00000000E+00  4.99971694E-01  0.00000000E+00
  0.00000000E+00  8.65976376E-01  0.00000000E+00  4.44778496E-16 -9.60461551E-16
  0.00000000E+00  0.00000000E+00  0.00000000E+00  9.04794904E-15  0.00000000E+00
  0.00000000E+00  0.00000000E+00 -8.56528497E-15  0.00000000E+00  0.00000000E+00
  0.00000000E+00  8.66025404E-01  0.00000000E+00  0.00000000E+00 -5.00000000E-01
  0.00000000E+00  0.00000000E+00  0.00000000E+00  0.00000000E+00  0.00000000E+00
  0.00000000E+00  0.00000000E+00  0.00000000E+00  0.00000000E+00  0.00000000E+00
  0.00000000E+00  0.00000000E+00  0.00000000E+00  0.00000000E+00  0.00000000E+00
  1.00000000E+00  0.00000000E+00  0.00000000E+00  0.00000000E+00
Total SCF Density                          R   N=         171
  2.15778585E+00 -6.13057828E-01  2.38678927E+00  0.00000000E+00  0.00000000E+00
  2.04375565E+00  0.00000000E+00  0.00000000E+00  0.00000000E+00  2.11270031E+00
  0.00000000E+00  0.00000000E+00  0.00000000E+00  0.00000000E+00  2.04375565E+00
  9.93218307E-02 -5.05872389E-01  0.00000000E+00  0.00000000E+00  0.00000000E+00
  1.21282188E+00  0.00000000E+00  0.00000000E+00 -1.54509553E-01  0.00000000E+00
  0.00000000E+00  0.00000000E+00  5.75969790E-01  0.00000000E+00  0.00000000E+00
  0.00000000E+00 -3.32890114E-01  0.00000000E+00  0.00000000E+00  0.00000000E+00
  1.03450259E+00  0.00000000E+00  0.00000000E+00  0.00000000E+00  0.00000000E+00
 -1.54509553E-01  0.00000000E+00  0.00000000E+00  0.00000000E+00  5.75969790E-01
  6.27078057E-02 -2.61106518E-01  0.00000000E+00  0.00000000E+00  0.00000000E+00
  4.91012579E-01  0.00000000E+00  0.00000000E+00  0.00000000E+00  2.00956538E-01
  0.00000000E+00  0.00000000E+00 -1.20925928E-01  0.00000000E+00  0.00000000E+00
  0.00000000E+00  2.80514671E-01  0.00000000E+00  0.00000000E+00  0.00000000E+00
  1.37661046E-01  0.00000000E+00  0.00000000E+00  0.00000000E+00 -2.39305899E-01
  0.00000000E+00  0.00000000E+00  0.00000000E+00  5.92934547E-01  0.00000000E+00
  0.00000000E+00  0.00000000E+00  3.41616561E-01  0.00000000E+00  0.00000000E+00
  0.00000000E+00  0.00000000E+00 -1.20925928E-01  0.00000000E+00  0.00000000E+00
  0.00000000E+00  2.80514671E-01  0.00000000E+00  0.00000000E+00  0.00000000E+00
  1.37661046E-01  6.40655139E-04 -2.98747247E-03  0.00000000E+00  0.00000000E+00
  0.00000000E+00  7.45955565E-03  0.00000000E+00  0.00000000E+00  0.00000000E+00
  2.65504819E-03  0.00000000E+00  0.00000000E+00  0.00000000E+00  2.37817626E-04
  0.00000000E+00  0.00000000E+00  0.00000000E+00  0.00000000E+00  0.00000000E+00
  0.00000000E+00  0.00000000E+00  0.00000000E+00  0.00000000E+00  0.00000000E+00
  0.00000000E+00  0.00000000E+00  0.00000000E+00  0.00000000E+00  0.00000000E+00
  0.00000000E+00  0.00000000E+00  0.00000000E+00  0.00000000E+00  0.00000000E+00
  0.00000000E+00  0.00000000E+00  0.00000000E+00  0.00000000E+00  0.00000000E+00
  0.00000000E+00  0.00000000E+00  0.00000000E+00  0.00000000E+00  0.00000000E+00
  0.00000000E+00  1.10964725E-03 -5.17445411E-03  0.00000000E+00  0.00000000E+00
  0.00000000E+00  1.29203294E-02  0.00000000E+00  0.00000000E+00  0.00000000E+00
  4.59867836E-03  0.00000000E+00  0.00000000E+00  0.00000000E+00  4.11912211E-04
  0.00000000E+00  0.00000000E+00  7.13452878E-04  0.00000000E+00  0.00000000E+00
  0.00000000E+00  0.00000000E+00  0.00000000E+00  0.00000000E+00  0.00000000E+00
  0.00000000E+00  0.00000000E+00  0.00000000E+00  0.00000000E+00  0.00000000E+00
  0.00000000E+00  0.00000000E+00  0.00000000E+00  0.00000000E+00  0.00000000E+00
  0.00000000E+00
Spin SCF Density                           R   N=         171
  1.70632892E-04 -5.37346147E-04  1.30227964E-03  0.00000000E+00  0.00000000E+00
  7.88528250E-02  0.00000000E+00  0.00000000E+00  0.00000000E+00  2.77914122E-03
  0.00000000E+00  0.00000000E+00  0.00000000E+00  0.00000000E+00  7.88528250E-02
  2.78169237E-03 -1.03248217E-02  0.00000000E+00  0.00000000E+00  0.00000000E+00
  3.90684091E-02  0.00000000E+00  0.00000000E+00 -2.12741090E-01  0.00000000E+00
  0.00000000E+00  0.00000000E+00  5.74244050E-01  0.00000000E+00  0.00000000E+00
  0.00000000E+00 -9.38301662E-03  0.00000000E+00  0.00000000E+00  0.00000000E+00
  3.04474262E-02  0.00000000E+00  0.00000000E+00  0.00000000E+00  0.00000000E+00
 -2.12741090E-01  0.00000000E+00  0.00000000E+00  0.00000000E+00  5.74244050E-01
 -1.69864272E-03  8.98948952E-03  0.00000000E+00  0.00000000E+00  0.00000000E+00
 -1.30822741E-02  0.00000000E+00  0.00000000E+00  0.00000000E+00 -1.70767458E-02
  0.00000000E+00  0.00000000E+00 -1.04347083E-01  0.00000000E+00  0.00000000E+00
  0.00000000E+00  2.81005999E-01  0.00000000E+00  0.00000000E+00  0.00000000E+00
  1.37521162E-01  0.00000000E+00  0.00000000E+00  0.00000000E+00  3.79225044E-03
  0.00000000E+00  0.00000000E+00  0.00000000E+00 -7.39694142E-03  0.00000000E+00
  0.00000000E+00  0.00000000E+00 -1.85558726E-02  0.00000000E+00  0.00000000E+00
  0.00000000E+00  0.00000000E+00 -1.04347083E-01  0.00000000E+00  0.00000000E+00
  0.00000000E+00  2.81005999E-01  0.00000000E+00  0.00000000E+00  0.00000000E+00
  1.37521162E-01  1.52034002E-03 -6.99721199E-03  0.00000000E+00  0.00000000E+00
  0.00000000E+00  1.54833760E-02  0.00000000E+00  0.00000000E+00  0.00000000E+00
  6.11765388E-03  0.00000000E+00  0.00000000E+00  0.00000000E+00  1.82787057E-04
  0.00000000E+00  0.00000000E+00  0.00000000E+00  0.00000000E+00  0.00000000E+00
  0.00000000E+00  0.00000000E+00  0.00000000E+00  0.00000000E+00  0.00000000E+00
  0.00000000E+00  0.00000000E+00  0.00000000E+00  0.00000000E+00  0.00000000E+00
  0.00000000E+00  0.00000000E+00  0.00000000E+00  0.00000000E+00  0.00000000E+00
  0.00000000E+00  0.00000000E+00  0.00000000E+00  0.00000000E+00  0.00000000E+00
  0.00000000E+00  0.00000000E+00  0.00000000E+00  0.00000000E+00  0.00000000E+00
  0.00000000E+00  2.63330616E-03 -1.21195267E-02  0.00000000E+00  0.00000000E+00
  0.00000000E+00  2.68179939E-02  0.00000000E+00  0.00000000E+00  0.00000000E+00
  1.05960873E-02  0.00000000E+00  0.00000000E+00  0.00000000E+00  3.16596469E-04
  0.00000000E+00  0.00000000E+00  5.48361170E-04  0.00000000E+00  0.00000000E+00
  0.00000000E+00  0.00000000E+00  0.00000000E+00  0.00000000E+00  0.00000000E+00
  0.00000000E+00  0.00000000E+00  0.00000000E+00  0.00000000E+00  0.00000000E+00
  0.00000000E+00  0.00000000E+00  0.00000000E+00  0.00000000E+00  0.00000000E+00
  0.00000000E+00
Cartesian Gradient                         R   N=           3
  0.00000000E+00  0.00000000E+00  0.00000000E+00
Dipole Moment                              R   N=           3
  0.00000000E+00  0.00000000E+00  0.00000000E+00
Anisotropic Hyperfine tensors              R   N=           6
  2.06726219E+00  0.00000000E+00 -4.13452438E+00  0.00000000E+00  0.00000000E+00
  2.06726219E+00
Isotropic Hyperfine splittings             R   N=           1
  1.79551445E-01
QEq coupling tensors                       R   N=           6
 -1.86689487E+00  0.00000000E+00  3.73378975E+00  0.00000000E+00  0.00000000E+00
 -1.86689487E+00
Mulliken Charges                           R   N=           1
  7.10542736E-15
