C
SP        UB3LYP                                                      6-311++G(d,p)
Number of atoms                            I                1
Charge                                     I                0
Multiplicity                               I                3
Number of electrons                        I                6
Number of alpha electrons                  I                4
Number of beta electrons                   I                2
Number of basis functions                  I               22
Number of independant functions            I               22
Number of contracted shells                I                6
Highest angular momentum                   I                2
Largest degree of contraction              I                6
Number of primitive shells                 I               13
Viriral Ratio                              R      2.002730476107461E+00
SCF Energy                                 R     -3.785723707679448E+01
Total Energy                               R     -3.785723707679448E+01
S**2                                       R      2.003148048370223E+00
S**2 after annihilation                    R      2.000000003503951E+00
RMS Density                                R      2.553603902167270E-05
Atomic numbers                             I   N=           1
           6
Nuclear charges                            R   N=           1
  6.00000000E+00
Current cartesian coordinates              R   N=           3
  0.00000000E+00  0.00000000E+00  0.00000000E+00
Atom types                                 I   N=           1
           0
Force Field                                I                0
MM charges                                 R   N=           1
  0.00000000E+00
ONIOM Charges                              I   N=           4
           0           0           0           0
ONIOM Multiplicities                       I   N=           4
           3           0           0           0
Atom Layers                                I   N=           1
           1
Atom Modifiers                             I   N=           1
           0
Atom types                                 I   N=           1
           0
Link Atoms                                 I   N=           1
           0
Atom Modified MM Charges                   R   N=           1
  0.00000000E+00
Link Distances                             R   N=           1
  0.00000000E+00
MxBond                                     I                0
NBond                                      I   N=           1
           0
IBond                                      I                0
RBond                                      R      0.000000000000000E+00
Shell types                                I   N=           6
           0          -1          -1          -1          -1          -2
Number of primitives per shell             I   N=           6
           6           3           1           1           1           1
Shell to atom map                          I   N=           6
           1           1           1           1           1           1
Primitive exponents                        R   N=          13
  4.56324000E+03  6.82024000E+02  1.54973000E+02  4.44553000E+01  1.30290000E+01
  1.82773000E+00  2.09642000E+01  4.80331000E+00  1.45933000E+00  4.83456000E-01
  1.45585000E-01  4.38000000E-02  6.26000000E-01
Contraction coefficients                   R   N=          13
  1.96665025E-03  1.52306019E-02  7.61269097E-02  2.60801033E-01  6.16462078E-01
  2.21006028E-01  1.14660081E-01  9.19999648E-01 -3.03068213E-03  1.00000000E+00
  1.00000000E+00  1.00000000E+00  1.00000000E+00
P(S=P) Contraction coefficients            R   N=          13
  0.00000000E+00  0.00000000E+00  0.00000000E+00  0.00000000E+00  0.00000000E+00
  0.00000000E+00  4.02486927E-02  2.37593957E-01  8.15853851E-01  1.00000000E+00
  1.00000000E+00  1.00000000E+00  0.00000000E+00
Coordinates of each shell                  R   N=          18
  0.00000000E+00  0.00000000E+00  0.00000000E+00  0.00000000E+00  0.00000000E+00
  0.00000000E+00  0.00000000E+00  0.00000000E+00  0.00000000E+00  0.00000000E+00
  0.00000000E+00  0.00000000E+00  0.00000000E+00  0.00000000E+00  0.00000000E+00
  0.00000000E+00  0.00000000E+00  0.00000000E+00
Alpha Orbital Energies                     R   N=          22
 -1.03048792E+01 -5.90571243E-01 -2.69576254E-01 -2.69576254E-01 -1.58203527E-01
  3.38748724E-02  7.00305419E-02  7.00305419E-02  7.75285961E-02  5.13094275E-01
  5.13094275E-01  5.31566972E-01  6.21398034E-01  1.25990128E+00  1.25990191E+00
  1.26796525E+00  1.26796525E+00  1.28286720E+00  2.60660139E+00  2.60660139E+00
  2.62978197E+00  2.31402910E+01
Beta Orbital Energies                      R   N=          22
 -1.02756142E+01 -4.81394156E-01 -1.28793684E-01 -8.52768595E-02 -8.52768595E-02
  4.31060601E-02  8.07277342E-02  9.00297829E-02  9.00297830E-02  5.46484698E-01
  5.76520207E-01  5.76520207E-01  6.69849892E-01  1.32791567E+00  1.34116651E+00
  1.34116651E+00  1.38093439E+00  1.38093443E+00  2.64879322E+00  2.69310150E+00
  2.69310150E+00  2.31711287E+01
Alpha MO coefficients                      R   N=         484
  5.62135372E-01  4.64920362E-01 -9.62811529E-16 -9.01826492E-16 -3.66028288E-16
  1.41550423E-02  2.14341869E-16  1.32016654E-15 -4.60092377E-16 -7.27697274E-03
  4.31607813E-16 -2.34776321E-15  1.13755118E-15  2.49718505E-03 -7.11212302E-16
  2.52514261E-15 -1.30298565E-15 -4.75453858E-04 -2.21852293E-17  5.38936078E-18
  1.80618426E-16 -5.87444923E-18 -1.32052162E-01 -2.11023703E-01 -9.91627632E-15
 -1.96891534E-14 -8.26132934E-15  6.26133698E-01 -1.96833597E-14 -2.12419919E-14
 -1.24435253E-14  4.92350575E-01 -2.68251364E-15 -3.37523617E-14 -5.48949914E-15
  6.81626861E-04 -7.66643519E-15  8.55158766E-15 -7.05060375E-15 -1.13968884E-02
 -3.44173576E-16  1.22043631E-15  2.37917563E-15 -3.21574193E-15 -1.06481982E-14
 -1.06910057E-14  3.03597318E-01  2.57198194E-02  2.47398339E-15 -6.75109110E-14
  4.60475308E-01  3.90100342E-02 -1.94373230E-15  5.45373985E-13  4.08863662E-01
  3.46376563E-02  1.60456627E-14 -6.61926006E-13  5.39699963E-02  4.57217003E-03
 -1.71010677E-14  3.29688751E-15 -3.97069929E-15 -2.88766224E-16 -6.75671767E-15
 -4.48199992E-15  1.35965213E-14 -4.52694312E-15 -2.57198194E-02  3.03597318E-01
 -5.31391489E-15  4.11640789E-13 -3.90100342E-02  4.60475308E-01 -8.24838264E-14
 -2.00441164E-12 -3.46376563E-02  4.08863662E-01  1.92958177E-13  2.50131046E-12
 -4.57217003E-03  5.39699963E-02 -4.14472892E-13  2.45052985E-15  3.27214797E-16
 -3.90572486E-15  4.57711507E-15 -6.76868911E-15 -4.62933665E-14 -4.68730067E-14
 -3.79472619E-15  1.12249213E-13  2.73969545E-01 -2.87687671E-13 -7.31400945E-15
 -1.00069199E-14  4.21808343E-01  2.57259377E-12 -1.21361952E-15  6.61021864E-13
  4.43241700E-01 -3.39900275E-12 -1.12278725E-14 -1.07926484E-12  1.16878146E-01
 -7.37012653E-15 -7.25999222E-15 -3.90010723E-15 -1.85207469E-17 -3.42864752E-17
  4.16462081E-02  6.62077936E-02  8.97515078E-12 -2.80600959E-11  1.19595247E-11
 -1.84082414E-01  7.27753597E-12 -2.26263051E-11  1.02671462E-11 -8.04125998E-01
  3.63655431E-11 -1.14078086E-10  4.98340309E-11  1.46564864E+00 -9.47761308E-11
  2.97149884E-10 -1.11341953E-10  2.30868459E-03  3.87286866E-16 -1.22351433E-15
 -2.73162712E-15 -6.10042891E-16 -1.10174690E-11 -1.82699638E-11 -1.49312822E-02
 -1.19871782E-01  3.30113524E-11  6.36267946E-11 -1.70135018E-02 -1.36588322E-01
  3.70805979E-11  1.59717487E-10 -4.72759604E-02 -3.79542329E-01  1.15630211E-10
 -3.29695562E-10  1.45650077E-01  1.16931246E+00 -2.95878347E-10 -6.16376484E-13
  1.49437613E-16  1.26658035E-15 -2.83603559E-15  1.18638396E-15  5.08719676E-12
  8.43475864E-12 -1.19871782E-01  1.49312822E-02 -3.79699624E-12 -2.93543717E-11
 -1.36588322E-01  1.70135018E-02 -4.26443528E-12 -7.38367214E-11 -3.79542329E-01
  4.72759604E-02 -1.33019016E-11  1.52329967E-10  1.16931246E+00 -1.45650077E-01
  3.40355007E-11  2.83626350E-13  1.38679285E-15 -4.23133461E-17  1.21029162E-15
  2.80820049E-15  4.41089519E-12  7.36895580E-12 -2.91355121E-13 -3.05065850E-11
 -1.33984368E-01 -2.65706618E-11 -3.52516739E-13 -3.68801740E-11 -1.58472342E-01
 -6.00314216E-11 -8.60355511E-13 -9.06855205E-11 -4.48434268E-01  1.27703107E-10
  2.74211241E-12  2.91863465E-10  1.18667707E+00  2.48365744E-13  1.48608099E-15
  3.09063090E-15 -5.10230104E-17 -1.15079828E-16  3.60562113E-12  7.23980667E-12
 -1.27574747E-01 -2.21202535E-01  9.11233106E-12 -5.11179629E-11 -4.35576218E-01
 -7.55247929E-01  3.18908129E-11  5.92723998E-11  8.11700581E-01  1.40741197E+00
 -5.45534215E-11 -1.58234647E-11 -3.74948848E-01 -6.50125808E-01  2.24626065E-11
  2.58380300E-13  1.68865243E-15  2.86976597E-15  1.15256418E-15  5.83725683E-15
 -3.96550173E-12 -7.96347657E-12 -2.21202535E-01  1.27574747E-01 -5.13178032E-12
  5.62514914E-11 -7.55247929E-01  4.35576218E-01 -1.79604584E-11 -6.53040168E-11
  1.40741197E+00 -8.11700581E-01  3.07216139E-11  1.75209809E-11 -6.50125808E-01
  3.74948848E-01 -1.26457645E-11 -2.88667692E-13  3.01096169E-15 -1.61713743E-15
  5.36565646E-15 -7.20339140E-16 -2.62756637E-12 -5.28864936E-12 -1.02294924E-13
 -1.00296730E-11 -2.60048005E-01  3.77524835E-11 -3.49197812E-13 -3.40623578E-11
 -9.07974758E-01 -4.51571406E-11  6.69040820E-13  6.52682096E-11  1.60397528E+00
  1.37493569E-11 -3.31642640E-13 -3.26861665E-11 -7.31133472E-01 -1.88841632E-13
  6.23731329E-15  2.64058634E-15  1.42374643E-18  2.26513054E-16  1.23816365E-01
  2.50878561E-01 -2.99169407E-12  9.32811321E-12 -4.97585543E-12 -1.86874644E+00
 -9.64368340E-12  3.00406090E-11 -1.66818456E-11  2.48863520E+00  2.07087607E-11
 -6.46503773E-11  3.35293362E-11 -1.05986074E+00 -1.33228838E-11  4.16975049E-11
 -2.06024750E-11  1.00632682E-02 -2.51769070E-16  4.67227275E-16  3.08686206E-15
  2.98313941E-15 -1.48962419E-15 -2.22273795E-15  2.05147803E-15  6.35653419E-15
 -5.61735318E-17  1.30230585E-14  4.68513492E-15  4.28509168E-15  4.52243422E-16
 -1.00245483E-14 -1.32116016E-15 -3.58964260E-15 -8.58985823E-16  5.59106121E-15
 -1.35229398E-15  2.80902518E-15  4.97485291E-16  2.11535086E-13  1.92738241E-13
 -6.66049974E-14  5.02875162E-10  1.00000000E+00 -1.79039537E-16 -3.15745380E-17
  6.01361305E-15 -1.80168852E-15 -1.11487578E-16  3.82052526E-15  5.07112387E-15
 -3.60544130E-15  7.19323794E-17 -1.09788597E-14 -3.66011611E-15 -6.78406929E-16
 -2.42925941E-16  7.17946460E-15  2.74831716E-15  2.41185950E-15  2.84220306E-16
  6.59282256E-16 -7.65879803E-14 -1.97109849E-13  1.00000000E+00 -5.02875142E-10
 -7.77755779E-17  5.42109527E-17  2.28997811E-15 -1.39770250E-15  4.88007463E-15
 -8.40218610E-16  3.81470760E-15 -1.93133066E-15  2.76201644E-15  2.71130159E-15
 -2.48391376E-15  1.28033392E-15 -3.37564073E-15 -1.98393488E-15  6.93493062E-16
 -4.40533310E-16  3.43800856E-15 -4.01605288E-14  8.76481005E-01 -4.81436442E-01
 -2.76242833E-14 -2.01047185E-13  2.00780065E-17 -6.44347049E-17  1.54193000E-15
  1.57388977E-15  5.43802632E-15  9.18847368E-16  2.09178661E-15  4.34781515E-15
  6.13414627E-15 -2.41218104E-15 -1.24665631E-15 -2.78335539E-15 -2.48266582E-15
  1.82148391E-15  5.09963465E-18  1.12523974E-15  9.53137728E-17  5.74324806E-14
  4.81436442E-01  8.76481005E-01  2.09590721E-13 -3.44949396E-14 -2.64103025E-03
 -4.79707093E-03  1.23479393E-15 -1.73681028E-14  9.94802094E-15  2.63641833E-02
  2.66710900E-15 -1.59559169E-14  1.33274398E-14 -1.75718159E-02 -1.94846773E-14
  6.49230769E-14 -3.40579701E-14  7.28828384E-03  2.04726649E-14 -6.64313701E-14
  3.20820027E-14  9.99881635E-01  7.42855192E-15 -6.97370810E-14 -6.55585038E-16
 -2.11625304E-13 -3.66420382E-14 -5.55869948E-14 -1.30085244E+00  1.82081036E-01
 -7.14471787E-13  5.95410055E-13  1.58104342E+00 -2.21299522E-01  8.43624062E-13
 -1.19621045E-12 -8.68913067E-01  1.21622243E-01 -4.31203440E-13  9.41522635E-13
  2.86132158E-01 -4.00500766E-02  1.12990702E-13 -6.23767956E-16  4.65498168E-16
  3.45693611E-16  1.49560339E-15 -5.85133119E-16  7.48276830E-14  1.18088785E-13
 -1.82081036E-01 -1.30085244E+00  6.17737074E-12 -1.24941896E-12  2.21299522E-01
  1.58104342E+00 -7.31168990E-12  2.50810095E-12 -1.21622243E-01 -8.68913067E-01
  3.76937460E-12 -1.97330090E-12  4.00500766E-02  2.86132158E-01 -1.02279792E-12
 -2.14340608E-15 -4.24768152E-16 -1.29839020E-16  3.40503090E-16  2.15226949E-15
 -3.51364399E-14 -5.36072162E-14 -1.48211806E-13 -6.16451969E-12 -1.31809157E+00
  5.72296263E-13  1.81327898E-13  7.60800148E-12  1.58551223E+00 -1.14713598E-12
 -1.01350452E-13 -4.41260265E-12 -8.68234782E-01  8.99335045E-13  3.49943399E-14
  1.66911172E-12  2.85912486E-01  9.20356412E-16  2.58251559E-15  5.22519049E-16
  1.02072951E-17 -1.33843394E-16 -2.02428615E+00  2.16117371E+00  3.31786452E-15
 -9.05982747E-15  4.28781325E-15 -4.10064162E-01 -9.06254320E-15  2.66283288E-14
 -1.22816630E-14  3.25627491E-01  1.62728638E-14 -5.01103400E-14  2.25271800E-14
 -1.15655743E-01 -1.69449312E-14  5.29690514E-14 -2.35536401E-14 -3.00639665E-05
 -2.00629600E-16  1.70381158E-17 -1.80974439E-16 -8.16707335E-17
Beta MO coefficients                       R   N=         484
  5.63580913E-01  4.64534016E-01 -1.28192552E-15 -1.48770335E-15 -1.38611881E-15
  1.09408173E-02  1.87451098E-15  4.29978870E-15  3.25820277E-15 -5.87624668E-03
 -3.75470834E-15 -9.90348466E-15 -7.04788578E-15  1.99332151E-03  4.55176727E-15
  1.25385747E-14  8.78567621E-15  3.30811708E-04  2.52032597E-18  3.98966876E-17
 -1.32345920E-16 -8.72778939E-17 -1.27286487E-01 -1.99943200E-01 -3.79762133E-14
 -2.28428030E-13 -1.63087400E-13  5.70888515E-01  1.56229801E-13  1.31300826E-12
  9.09459899E-13  5.26163857E-01 -6.14188756E-13 -4.39817779E-12 -3.06497178E-12
  2.68087406E-02  1.09807569E-12  7.32330782E-12  5.08238022E-12  2.29500474E-02
 -6.39005731E-16  2.17661917E-15 -5.99185129E-15 -5.33218472E-15  1.46211056E-12
  1.69988881E-12 -3.55595377E-12  7.93042916E-12  2.65590706E-01  4.79316784E-12
 -9.40330373E-12  2.01745223E-11  3.95716616E-01 -6.29318060E-11  6.54690618E-12
 -1.25532815E-11  4.49480855E-01  8.32590849E-11 -3.48752531E-11  7.37276334E-11
  1.60436813E-01 -2.96637235E-13 -7.61020213E-15 -2.64097178E-15 -7.64284694E-17
 -2.91922173E-17  3.20913320E-12  4.11180810E-12 -1.18455947E-01  2.18928140E-01
 -2.83895930E-11  3.79633431E-12 -1.70226468E-01  3.14609482E-01 -2.71970897E-11
 -1.16422922E-10 -2.09237763E-01  3.86709452E-01 -9.59633890E-11  1.61216363E-10
 -1.17940184E-01  2.17974915E-01  1.12252844E-10 -6.00233360E-13  1.61508647E-15
 -2.99346837E-15  5.44122433E-15 -5.16256727E-15  3.18553210E-12  4.00881806E-12
  2.18928140E-01  1.18455947E-01 -1.64632362E-12  5.08674249E-12  3.14609482E-01
  1.70226468E-01 -1.96918972E-12 -1.20582334E-10  3.86709452E-01  2.09237763E-01
 -4.59626261E-12  1.66026246E-10  2.17974915E-01  1.17940183E-01  4.79678959E-12
 -5.97637879E-13 -3.03031256E-15 -1.65854847E-15 -5.18199237E-15 -5.50538024E-15
  4.28443219E-02  6.59451974E-02 -8.13387802E-11 -2.60851551E-10 -1.93653460E-10
 -1.53180527E-01 -7.45523110E-11 -2.39033107E-10 -1.85805312E-10 -8.91161956E-01
 -3.14387923E-10 -1.00836256E-09 -7.49080794E-10  1.49407702E+00  5.52774643E-10
  1.77303157E-09  1.58949119E-09 -6.68902379E-03  1.66999113E-16 -5.56194653E-16
  1.74759457E-15  1.62287332E-15 -6.20866544E-11 -9.93982682E-11  4.79335851E-10
 -9.40868198E-10 -1.43677851E-01  2.96467259E-10  4.96919564E-10 -9.79166046E-10
 -1.64368452E-01  1.04093501E-09  1.75137722E-09 -3.42842109E-09 -4.92253333E-01
 -1.90788058E-09 -3.52923632E-09  6.91242543E-09  1.19034882E+00  9.21804141E-12
  4.14959439E-15  3.02941525E-15  3.12564628E-17  6.97738814E-18 -5.16945991E-11
 -8.34201784E-11  7.79049863E-02 -1.40035036E-01  9.32193404E-10  2.59927189E-10
  8.39693261E-02 -1.50935751E-01  1.11355903E-09  8.23239730E-10  2.77668316E-01
 -4.99111732E-01  3.07239840E-09 -1.54478777E-09 -5.78765851E-01  1.04033773E+00
 -7.69961073E-09  7.58701271E-12 -1.37281372E-15  2.92680688E-15 -5.09880862E-15
  2.54115150E-15 -5.48500493E-11 -8.87450935E-11 -1.40035036E-01 -7.79049863E-02
  3.28079772E-11  2.80144145E-10 -1.50935751E-01 -8.39693261E-02  3.74563788E-11
  8.56721926E-10 -4.99111732E-01 -2.77668316E-01  1.12418212E-10 -1.61889730E-09
  1.04033773E+00  5.78765851E-01 -2.77548118E-10  8.02046456E-12  2.77044158E-15
  1.23606293E-15  2.59200219E-15  4.95394668E-15  1.70723228E-11  3.37706470E-11
  6.10462311E-11 -1.01458202E-10 -2.64097487E-01 -2.31889199E-10  2.11065957E-10
 -3.48874377E-10 -9.19989921E-01  2.49296950E-10 -3.31139973E-10  5.44763947E-10
  1.59150753E+00 -4.87372722E-11  1.14755439E-10 -1.82528602E-10 -7.17389732E-01
 -1.53737636E-12  7.36770890E-15 -3.21162297E-15 -3.31815978E-16 -1.31183346E-16
  2.10144064E-11  4.17280814E-11  1.29913432E-01 -2.35378655E-01  1.08560095E-10
 -2.91610494E-10  4.53353058E-01 -8.21390300E-01  3.80416591E-10  3.30552083E-10
 -7.59358274E-01  1.37581408E+00 -6.97285238E-10 -8.62048672E-11  3.34888222E-01
 -6.06754345E-01  3.72433808E-10 -1.84945307E-12 -1.61027443E-15  1.35116416E-15
 -1.16042456E-15  8.43831213E-15  2.35460668E-11  4.68133137E-11 -2.35378655E-01
 -1.29913432E-01 -4.60878135E-12 -3.27910911E-10 -8.21390300E-01 -4.53353058E-01
 -1.52217576E-11  3.75165486E-10  1.37581408E+00  7.59358274E-01  2.67912141E-11
 -1.02635724E-10 -6.06754345E-01 -3.34888222E-01 -1.16572218E-11 -2.07068363E-12
  2.90131457E-15  1.00746735E-15  7.79227656E-15  1.42373329E-15  1.28132665E-01
  2.57001354E-01  1.92499703E-11  5.42191650E-11  2.93401318E-11 -1.88884884E+00
  6.64983494E-11  1.87974782E-10  9.97057826E-11  2.45183472E+00 -1.30464304E-10
 -3.69455010E-10 -2.09587413E-10 -1.01906764E+00  8.37810659E-11  2.39003567E-10
  1.47216990E-10 -1.05478363E-02  2.23928850E-16 -5.15940205E-16  2.01561558E-15
  1.73255943E-15  5.05213306E-03  6.86569140E-03 -4.24650290E-16  1.03256534E-14
  1.09930693E-14 -3.39274896E-02  2.07145749E-15  1.35073466E-14  1.10024373E-14
  7.72059184E-03 -2.17475324E-14 -5.79734462E-14 -3.59685652E-14 -1.33270042E-03
  2.66283129E-14  6.51509987E-14  4.11809078E-14  9.99658479E-01 -2.57951140E-14
  8.85427113E-14  1.68824854E-13  1.46285736E-13 -2.21117936E-17 -1.34208132E-16
 -1.29470118E-15  2.50068630E-15 -3.01643205E-15  8.56560701E-16 -6.05745023E-16
  1.38234661E-15 -2.82238540E-15 -1.15687714E-15 -2.88112044E-16  1.94195144E-15
  8.42174774E-15  3.26994606E-16  7.99071225E-16 -2.58168676E-15 -5.07744651E-15
 -9.21495971E-14 -3.17011712E-01  9.48421623E-01 -5.83794871E-14 -4.20350573E-14
 -4.45149151E-17 -2.39826280E-17  2.80236061E-15  1.30407149E-15  8.31630687E-15
  3.03674711E-16  5.57824557E-15  8.61084271E-17  4.92947429E-15 -2.87063041E-16
 -3.43453393E-15  8.15235723E-16 -8.15900356E-16  2.20523441E-17 -1.71071986E-16
 -6.35541753E-16 -1.33141870E-15 -3.60787990E-15  9.48421623E-01  3.17011712E-01
 -4.49025333E-14  5.56666907E-14 -2.08427454E-15 -2.77056235E-15  9.29379885E-15
  4.04921546E-17  9.72777545E-18  1.32692840E-14  3.56949630E-15  1.99701250E-16
 -3.72397727E-16 -1.31398565E-15 -1.35466186E-15 -6.34276232E-15  5.27539137E-16
 -4.76455644E-16 -7.74635828E-16  4.80967444E-15 -4.69385086E-16 -1.69267502E-13
  2.42235479E-14  6.97333604E-14  1.00000000E+00 -1.94733568E-08 -1.82170534E-15
 -2.39788588E-15 -1.28874092E-16  9.06853000E-15 -8.84662254E-17  1.15350253E-14
 -6.96048468E-16  5.25697185E-15  4.59640999E-17 -1.47096884E-15  7.06874015E-15
 -3.52150412E-15 -8.17821254E-16  1.89021331E-16 -4.93458875E-15  7.66128083E-16
  1.93296090E-16 -1.46202090E-13 -6.63895861E-14  2.24899424E-14  1.94733570E-08
  1.00000000E+00  2.62267497E-13  4.16331984E-13  2.52003920E-11 -3.53080807E-11
 -1.31798037E+00 -4.48973136E-12 -2.92237329E-11  4.08400867E-11  1.58471224E+00
  9.33668523E-12  1.36316716E-11 -1.85722946E-11 -8.64223485E-01 -7.68527197E-12
 -2.10422705E-12  1.93574469E-12  2.84335611E-01 -2.95867781E-15  2.93833371E-15
 -6.28877903E-16  1.81373675E-16  3.52601128E-18  2.55136046E-13  4.01544033E-13
  6.21538786E-01 -1.16265647E+00  4.26532357E-11 -4.38111233E-12 -7.45916177E-01
  1.39531802E+00 -5.30373781E-11  9.22643597E-12  4.04209099E-01 -7.56117452E-01
  3.29508775E-11 -7.69821155E-12 -1.32650810E-01  2.48137888E-01 -1.54820208E-11
 -2.93461291E-15  7.48739647E-16  1.02149344E-15 -1.52630340E-15  3.15735221E-15
  2.88726659E-13  4.52712369E-13 -1.16265647E+00 -6.21538786E-01 -5.52245277E-12
 -4.86493521E-12  1.39531802E+00  7.45916177E-01  6.80776518E-12  9.96508215E-12
 -7.56117452E-01 -4.04209099E-01 -3.96951638E-12 -8.05207075E-12  2.48137888E-01
  1.32650810E-01  1.43188773E-12 -5.73484727E-15  1.72544309E-16 -3.91560072E-16
  3.73612553E-15  1.33163600E-15 -2.02389125E+00  2.16159329E+00 -1.61399237E-14
 -4.44352783E-14 -3.11731401E-14 -4.10843470E-01  4.97335248E-14  1.36293568E-13
  9.57927328E-14  3.25764069E-01 -1.01493979E-13 -2.80033152E-13 -1.97273661E-13
 -1.15660503E-01  1.19688689E-13  3.35751210E-13  2.36740923E-13  3.34754564E-04
 -2.37688392E-16  1.68507242E-16 -9.07217890E-17 -8.24684804E-17
Total SCF Density                          R   N=         253
  6.67259245E-01  5.76466889E-01  5.16451082E-01  1.29716086E-15  5.51319777E-15
  9.28328406E-02  3.41844046E-14  4.70678045E-14  3.20576729E-15  9.28328406E-02
  2.08628011E-14  3.35374796E-14  8.87767653E-16 -1.54965990E-15  2.67021632E-26
 -1.41225616E-01 -2.34610979E-01 -5.90002110E-14 -1.95273522E-14 -9.82977667E-14
  7.18277170E-01 -2.15434177E-14 -3.08593529E-14  1.40802399E-01  3.44946799E-15
  1.34650426E-15  2.97436983E-14  2.13559292E-01 -1.55312292E-13 -2.57934942E-13
  3.50917195E-15  1.40802399E-01 -2.35041642E-15  9.23263557E-13  3.17816757E-15
  2.13559292E-01 -1.12541135E-13 -1.77914804E-13  1.53135721E-15 -2.50918609E-14
 -1.47789495E-25  5.11438035E-13  2.32265616E-15 -3.80575904E-14  8.34090336E-25
 -1.39391891E-01 -2.15213456E-01  1.92277729E-13 -7.24376313E-13 -8.98673569E-14
  6.08490892E-01  4.01822207E-13 -2.21342899E-13  4.72382553E-13  5.19344977E-01
  7.18340880E-14  1.17611052E-13  1.25020786E-01  8.34629674E-15  1.19558347E-15
 -3.94208919E-13  1.89622837E-01  1.08394823E-14  2.06232493E-15 -3.20540122E-14
  1.68369262E-01  5.62574792E-13  8.78595048E-13  8.22025824E-15  1.25020786E-01
 -2.08697371E-15 -2.36617772E-12  1.05635410E-14  1.89622837E-01 -3.37919657E-14
 -3.13134551E-12  1.64961386E-14  1.68369262E-01  3.87521795E-13  6.11233568E-13
 -9.14293072E-17  5.89942764E-14  4.98927315E-25 -1.75325535E-12 -1.38673618E-16
  8.94784176E-14 -2.80337122E-24 -1.61534699E-12 -1.23130603E-16  7.94493709E-14
  9.43162341E-24 -9.75246714E-04 -3.41710699E-03 -2.66322027E-13  7.36224024E-13
 -4.38147597E-15  1.57887480E-02 -3.98197609E-13  1.16116743E-12  2.43783384E-14
  1.44115045E-02 -3.73750885E-13  8.81809173E-13 -8.21829832E-14  7.29382452E-04
 -1.37229186E-13 -2.16707471E-13  1.65027415E-02 -1.53475788E-14  1.57816997E-16
  6.16592666E-13  2.50302112E-02 -2.35185463E-14  2.72226855E-16  6.12569939E-13
  2.22247396E-02 -1.99755047E-14 -1.62532411E-17 -1.77204629E-14  2.93366524E-03
 -9.24116290E-13 -1.45934480E-12 -1.53722269E-14  1.65027415E-02 -2.75480495E-16
  4.20822727E-12 -2.35667872E-14  2.50302112E-02 -4.46053887E-15  3.75169366E-12
 -1.99859602E-14  2.22247396E-02  1.04873155E-14  3.28335066E-13 -5.56234370E-15
  2.93366524E-03 -6.41768292E-13 -1.01122406E-12  5.46832965E-15 -1.26272695E-13
 -8.26665465E-25  2.89713556E-12  8.29398229E-15 -1.91521646E-13  4.65655851E-24
  2.67065127E-12  7.36436442E-15 -1.70055246E-13 -1.56576270E-23  1.36261666E-13
  9.72095981E-16 -2.24472894E-14  2.60027976E-23 -1.49707743E-03 -2.25106723E-03
  1.79391514E-16 -4.18933276E-15 -3.64899463E-15  5.96283191E-03  5.23286864E-15
  3.16335095E-14  2.10152619E-14  6.46573686E-03 -1.28034392E-14 -9.94397479E-14
 -7.02815568E-14  6.06965561E-04  2.54568355E-14  1.68123077E-13  1.16724748E-13
  6.56929234E-04  1.15734965E-16  1.91250046E-16 -1.21390956E-15 -2.78413398E-18
  9.54995059E-29 -5.80586165E-16 -1.84117364E-15 -4.22278088E-18 -5.96120888E-28
 -5.05529147E-16 -1.63480861E-15 -3.74947717E-18  1.95980714E-27 -1.74159136E-17
 -2.15794708E-16 -4.94930926E-19 -3.31291088E-27 -1.07313222E-17  1.64008047E-29
 -4.12700901E-16 -6.71702201E-16  1.27858870E-17 -1.19319461E-15 -3.45078576E-28
  2.00727598E-15  1.93927446E-17 -1.80975464E-15  2.28720925E-27  1.74586720E-15
  1.72191396E-17 -1.60691115E-15 -7.43652596E-27  5.92772861E-17  2.27292613E-18
 -2.12112244E-16  1.26779002E-26  3.60549727E-17 -1.94234019E-30  2.15668292E-29
  4.75450788E-16  7.18461473E-16 -2.16904394E-15  1.21581830E-15  9.16619224E-28
 -1.92988836E-15 -3.28985506E-15  1.84406868E-15 -5.84387283E-27 -1.98184375E-15
 -2.92111687E-15  1.63737917E-15  1.91277086E-26 -1.58825047E-16 -3.85587376E-16
  2.16134021E-16 -3.22525823E-26 -1.64758128E-16  3.13322311E-29 -2.60684931E-29
  1.08216113E-28  1.05087035E-15  1.70145714E-15 -1.18663369E-15 -2.17023209E-15
  9.21181418E-28 -5.05860544E-15 -1.79980350E-15 -3.29165717E-15 -4.24265549E-27
 -4.38831965E-15 -1.59807538E-15 -2.92271699E-15  1.49832664E-26 -1.45329736E-16
 -2.10945922E-16 -3.85798592E-16 -2.41961913E-26 -8.57505200E-17  2.00958390E-29
  1.21966300E-29  2.36118721E-29  1.04684317E-28
Spin SCF Density                           R   N=         253
 -3.91345654E-04  1.96174458E-03  4.91281136E-03 -6.92561920E-15 -8.48197745E-15
  9.28328406E-02 -2.22903158E-14 -4.28952804E-14  3.20576729E-15  9.28328406E-02
 -1.90924632E-14 -3.03911550E-14  8.87767653E-16 -1.54965990E-15 -2.64966796E-26
 -8.22490093E-03 -1.64851894E-02 -1.56117923E-14  2.41319078E-13  8.79420110E-14
  6.62103747E-02  1.61155902E-14  2.98732717E-14  1.40802399E-01  3.44946799E-15
  1.34650426E-15 -1.48676917E-13  2.13559292E-01  1.74097570E-13  2.63124410E-13
  3.50917195E-15  1.40802399E-01 -2.35041642E-15 -5.75993205E-13  3.17816757E-15
  2.13559292E-01  1.15310255E-13  1.82738749E-13  1.53135721E-15 -2.50918609E-14
  1.48862438E-25 -5.27033681E-13  2.32265616E-15 -3.80575904E-14 -8.20165511E-25
  1.17868763E-03  6.51747426E-04  2.32226085E-13 -4.84012651E-13  8.17377435E-14
  7.85766832E-03  2.37439288E-13 -1.60300735E-12 -4.84629011E-13 -3.44208916E-02
 -8.02896064E-14 -1.24506299E-13  1.25020786E-01  8.34629674E-15  1.19558347E-15
  3.07139853E-13  1.89622837E-01  1.08394823E-14  2.06232493E-15  6.14229710E-13
  1.68369262E-01 -5.45919579E-13 -8.70975425E-13  8.22025824E-15  1.25020786E-01
 -2.08697372E-15  2.65577736E-12  1.05635410E-14  1.89622837E-01 -3.37919657E-14
  1.49686248E-12  1.64961386E-14  1.68369262E-01 -3.84793079E-13 -6.07858997E-13
 -9.14293075E-17  5.89942764E-14 -5.00808780E-25  1.74641324E-12 -1.38673617E-16
  8.94784176E-14  2.77161255E-24  1.60992492E-12 -1.23130607E-16  7.94493709E-14
 -9.35657991E-24  3.60273820E-03  5.45141249E-03 -2.64280727E-13  7.48477691E-13
  4.36838560E-15 -1.48644734E-02 -4.06581730E-13  1.09075010E-12 -2.43975999E-14
 -1.37766497E-02 -3.40804663E-13  1.11766787E-12  8.21811809E-14 -7.15981356E-04
  1.37180631E-13  2.18169164E-13  1.65027415E-02 -1.53475788E-14  1.57816997E-16
 -6.37264538E-13  2.50302112E-02 -2.35185463E-14  2.72226853E-16 -5.42912050E-13
  2.22247396E-02 -1.99755047E-14 -1.62532344E-17 -7.66146621E-14  2.93366524E-03
  9.26066960E-13  1.45749721E-12 -1.53722269E-14  1.65027415E-02 -2.75480493E-16
 -4.15363175E-12 -2.35667872E-14  2.50302112E-02 -4.46053889E-15 -3.95467875E-12
 -1.99859602E-14  2.22247396E-02  1.04873156E-14 -6.43722404E-14 -5.56234372E-15
  2.93366524E-03  6.42165478E-13  1.01298818E-12  5.46832965E-15 -1.26272695E-13
  8.31103245E-25 -2.90600168E-12  8.29398229E-15 -1.91521646E-13 -4.58794075E-24
 -2.67757504E-12  7.36436443E-15 -1.70055246E-13  1.54972008E-23 -1.36277785E-13
  9.72095970E-16 -2.24472895E-14 -2.56585343E-23  3.97250607E-03  6.61899804E-03
  1.92335146E-15  6.29651976E-15  3.83764959E-15 -2.02482438E-02 -1.93933428E-15
 -2.86365392E-14 -2.07311894E-14 -1.76813462E-02  1.53903672E-14  1.02443582E-13
  7.04056015E-14 -6.24877004E-04 -2.49479546E-14 -1.68025743E-13 -1.16562799E-13
 -3.96698992E-04 -4.97794395E-17 -6.66212101E-17 -1.21390956E-15 -2.78413398E-18
 -1.12921074E-28  1.48960752E-16 -1.84117364E-15 -4.22278088E-18  5.66162864E-28
  1.66943913E-16 -1.63480861E-15 -3.74947718E-18 -1.95722640E-27  1.68359165E-17
 -2.15794708E-16 -4.94930917E-19  3.18238502E-27  1.85974340E-17  1.55841353E-29
  9.64374925E-17  1.61631467E-16  1.27858870E-17 -1.19319461E-15  3.64990351E-28
 -4.78810799E-16  1.93927446E-17 -1.80975464E-15 -1.67214644E-27 -5.44180592E-16
  1.72191396E-17 -1.60691115E-15  5.90658907E-27 -5.75866053E-17  2.27292612E-18
 -2.12112244E-16 -9.44761330E-27 -6.38784503E-17  8.39202951E-31  1.20883037E-29
 -9.00737347E-16 -1.55464001E-15 -2.16904394E-15  1.21581830E-15 -1.03813857E-27
  4.91436575E-15 -3.28985506E-15  1.84406868E-15  5.05568653E-27  4.32199202E-15
 -2.92111687E-15  1.63737917E-15 -1.76038671E-26  1.62970543E-16 -3.85587376E-16
  2.16134022E-16  2.86554763E-26  1.10355978E-16  2.36752436E-29  2.60240399E-32
  3.63765184E-29 -2.08183467E-16 -3.49723907E-16 -1.18663369E-15 -2.17023209E-15
 -8.18284822E-28  1.03147037E-15 -1.79980350E-15 -3.29165717E-15  5.45672960E-27
  1.22186037E-15 -1.59807538E-15 -2.92271699E-15 -1.77039552E-26  1.40916524E-16
 -2.10945922E-16 -3.85798592E-16  3.00057227E-26  1.59055009E-16  1.32816858E-29
  3.54158652E-29 -4.03105455E-29  4.78046949E-29
Cartesian Gradient                         R   N=           3
  0.00000000E+00  0.00000000E+00  0.00000000E+00
Dipole Moment                              R   N=           3
  1.91970954E-13 -3.64811169E-12 -1.44603442E-12
