N                                                                       
SP        UB3LYP                                                      6-311++G(d,p)
Number of atoms                            I                1
Charge                                     I                0
Multiplicity                               I                4
Number of electrons                        I                7
Number of alpha electrons                  I                5
Number of beta electrons                   I                2
Number of basis functions                  I               22
Number of independant functions            I               22
Number of contracted shells                I                6
Highest angular momentum                   I                2
Largest degree of contraction              I                6
Number of primitive shells                 I               13
Viriral Ratio                              R      2.002149853330808E+00
SCF Energy                                 R     -5.460072325950102E+01
Total Energy                               R     -5.460072325950102E+01
S**2                                       R      3.753523906060371E+00
S**2 after annihilation                    R      3.750000006004813E+00
RMS Density                                R      2.443352091933800E-06
Atomic numbers                             I   N=           1
           7
Nuclear charges                            R   N=           1
  7.00000000E+00
Current cartesian coordinates              R   N=           3
  0.00000000E+00  0.00000000E+00  0.00000000E+00
Atom types                                 I   N=           1
           0
Force Field                                I                0
MM charges                                 R   N=           1
  0.00000000E+00
ONIOM Charges                              I   N=           4
           0           0           0           0
ONIOM Multiplicities                       I   N=           4
           4           0           0           0
Atom Layers                                I   N=           1
           1
Atom Modifiers                             I   N=           1
           0
Atom types                                 I   N=           1
           0
Link Atoms                                 I   N=           1
           0
Atom Modified MM Charges                   R   N=           1
  0.00000000E+00
Link Distances                             R   N=           1
  0.00000000E+00
MxBond                                     I                0
NBond                                      I   N=           1
           0
IBond                                      I                0
RBond                                      R      0.000000000000000E+00
Shell types                                I   N=           6
           0          -1          -1          -1          -1          -2
Number of primitives per shell             I   N=           6
           6           3           1           1           1           1
Shell to atom map                          I   N=           6
           1           1           1           1           1           1
Primitive exponents                        R   N=          13
  6.29348000E+03  9.49044000E+02  2.18776000E+02  6.36916000E+01  1.88282000E+01
  2.72023000E+00  3.06331000E+01  7.02614000E+00  2.11205000E+00  6.84009000E-01
  2.00878000E-01  6.39000000E-02  9.13000000E-01
Contraction coefficients                   R   N=          13
  1.96978815E-03  1.49612859E-02  7.35005308E-02  2.48936766E-01  6.02459433E-01
  2.56201759E-01  1.11906080E-01  9.21666655E-01 -2.56919183E-03  1.00000000E+00
  1.00000000E+00  1.00000000E+00  1.00000000E+00
P(S=P) Contraction coefficients            R   N=          13
  0.00000000E+00  0.00000000E+00  0.00000000E+00  0.00000000E+00  0.00000000E+00
  0.00000000E+00  3.83119186E-02  2.37403116E-01  8.17592398E-01  1.00000000E+00
  1.00000000E+00  1.00000000E+00  0.00000000E+00
Coordinates of each shell                  R   N=          18
  0.00000000E+00  0.00000000E+00  0.00000000E+00  0.00000000E+00  0.00000000E+00
  0.00000000E+00  0.00000000E+00  0.00000000E+00  0.00000000E+00  0.00000000E+00
  0.00000000E+00  0.00000000E+00  0.00000000E+00  0.00000000E+00  0.00000000E+00
  0.00000000E+00  0.00000000E+00  0.00000000E+00
Alpha Orbital Energies                     R   N=          22
 -1.44348010E+01 -8.14226587E-01 -3.59896474E-01 -3.59896474E-01 -3.59896474E-01
  5.74596481E-02  1.07020159E-01  1.07020159E-01  1.07020159E-01  7.22329422E-01
  7.22329422E-01  7.22329422E-01  8.81948710E-01  1.85961414E+00  1.85961414E+00
  1.85962243E+00  1.85962243E+00  1.85962243E+00  3.65783049E+00  3.65783049E+00
  3.65783049E+00  3.50791675E+01
Beta Orbital Energies                      R   N=          22
 -1.43761243E+01 -6.19297115E-01 -1.16857100E-01 -1.16857100E-01 -1.16857100E-01
  7.48545276E-02  1.32779848E-01  1.32779848E-01  1.32779848E-01  8.06015492E-01
  8.06015492E-01  8.06015492E-01  9.68991683E-01  2.01348542E+00  2.01348542E+00
  2.01349363E+00  2.01349363E+00  2.01349363E+00  3.78081035E+00  3.78081035E+00
  3.78081035E+00  3.51394601E+01
Alpha MO coefficients                      R   N=         484
  5.56243505E-01  4.66778691E-01 -1.98995967E-16 -1.99477728E-16  1.26696543E-16
  1.47962398E-02  2.36639851E-16  2.50415662E-16 -1.47161567E-16 -7.22308462E-03
 -1.22022646E-16 -1.47760666E-16  8.46868343E-17  2.60083234E-03  3.01473435E-17
  5.79220192E-17 -4.97494836E-17 -3.95809935E-16 -3.92490731E-17 -2.01302031E-17
  6.37086752E-18  4.49826149E-20 -1.33821786E-01 -2.14683162E-01 -4.47833810E-17
 -5.23588712E-17 -6.87545923E-17  6.42917147E-01  3.49951453E-17  1.39769069E-16
  1.41708858E-16  4.81035375E-01 -7.03921910E-17 -5.59292156E-17 -9.57837219E-17
 -3.31044915E-03 -7.75816473E-17  1.00156298E-16 -3.38033796E-18  2.48639323E-16
  1.55460449E-17  4.22942059E-18 -1.19281133E-16  9.87367488E-18  1.41353167E-17
  2.06111291E-17  2.45094223E-02  1.97946814E-04  3.16286772E-01 -9.69726132E-17
  3.65904812E-02  2.95517743E-04  4.72189226E-01 -1.01500727E-16  3.04104302E-02
  2.45605453E-04  3.92437515E-01  2.82803601E-16  3.84842149E-03  3.10812211E-05
  4.96627295E-02 -1.31782043E-17  2.72019347E-17 -1.87352859E-17 -1.51079377E-16
 -3.75388001E-17  2.11886180E-17  3.65259787E-17 -5.96065477E-02  3.11553464E-01
  4.42399481E-03 -1.23637868E-16 -8.89875018E-02  4.65122800E-01  6.60464766E-03
 -2.06427968E-16 -7.39577104E-02  3.86564592E-01  5.48913734E-03  3.34298591E-16
 -9.35930339E-03  4.89195147E-02  6.94647001E-04 -3.66893203E-17 -6.05958769E-19
 -1.79818519E-17 -1.52456435E-17 -3.35942291E-17 -2.71818633E-17 -4.09754388E-17
  3.10619414E-01  5.97701688E-02 -2.41076593E-02  1.64398978E-16  4.63728344E-01
  8.92317741E-02 -3.59906831E-02  1.98274522E-16  3.85405657E-01  7.41607257E-02
 -2.99119367E-02 -4.06390191E-16  4.87728521E-02  9.38499485E-03 -3.78533744E-03
  2.54374387E-17 -5.11447295E-17  6.91838393E-17 -2.54803739E-18  3.89270946E-17
  4.14826389E-02  6.62072063E-02  5.80057707E-17 -1.24231219E-17 -4.22770949E-17
 -1.81612121E-01  2.35903921E-16 -1.45171360E-16 -1.62892428E-16 -8.53097113E-01
  3.25452102E-16 -1.69947383E-16 -2.35427493E-16  1.51101518E+00 -4.61871214E-16
  2.48567114E-16  3.09807831E-16  2.16772266E-16  1.00297634E-17 -2.43685015E-18
  1.43744283E-16  1.48792984E-17 -1.69806785E-17 -2.87330687E-17  2.49580537E-02
 -1.17976638E-02 -1.20551445E-01  1.34788198E-16  2.73327945E-02 -1.29202029E-02
 -1.32021827E-01  1.45549182E-16  8.14584840E-02 -3.85053985E-02 -3.93457681E-01
 -4.36040284E-16 -2.42280320E-01  1.14525827E-01  1.17025322E+00 -1.33550174E-17
 -3.49440092E-18 -3.83453162E-17 -1.15778351E-17  4.60550436E-17  1.83004346E-17
  3.15321111E-17 -1.05345184E-01  5.86363838E-02 -2.75482646E-02 -1.29379902E-16
 -1.15368702E-01  6.42155932E-02 -3.01694621E-02 -2.09679259E-16 -3.43827250E-01
  1.91378342E-01 -8.99124546E-02  4.93384102E-16  1.02263843E+00 -5.69212727E-01
  2.67424794E-01  1.15389765E-18 -4.58393013E-17 -7.30985242E-17  3.64147557E-17
 -3.07973641E-17  3.54953146E-19 -2.97343431E-20 -5.97848471E-02 -1.08246616E-01
 -1.78393756E-03 -2.12486768E-17 -6.54733320E-02 -1.18546203E-01 -1.95367793E-03
  9.01187687E-17 -1.95126714E-01 -3.53296988E-01 -5.82244317E-03 -9.67389596E-17
  5.80361435E-01  1.05080408E+00  1.73175749E-02  2.28315892E-17 -2.95465602E-17
  9.49052227E-17  7.84486920E-17  3.76718984E-18  2.62051837E-17  5.32580219E-17
  3.10819520E-02 -1.61768454E-02 -2.56881917E-01 -3.46329437E-16  1.00647267E-01
 -5.23826586E-02 -8.31815931E-01  3.97122532E-16 -1.98422550E-01  1.03270571E-01
  1.63989588E+00 -1.37522538E-16  9.57169726E-02 -4.98166483E-02 -7.91068700E-01
  9.26061844E-18 -2.87657290E-16 -3.86963560E-16 -1.74380708E-16 -2.33583426E-16
 -3.89551756E-17 -8.04337198E-17 -2.57327461E-01 -7.69161493E-03 -3.06514909E-02
  5.97742265E-16 -8.33258661E-01 -2.49064158E-02 -9.92533799E-02 -8.01360939E-16
  1.64274017E+00  4.91021236E-02  1.95674550E-01  2.75330494E-16 -7.92440757E-01
 -2.36863533E-02 -9.43913663E-02 -1.76657858E-16 -2.26652227E-16  3.64917143E-16
 -4.87213241E-17 -7.89505128E-18  3.18713443E-17  5.99775261E-17  5.70851079E-03
 -2.58641153E-01  1.69783442E-02 -4.43362440E-16  1.84848754E-02 -8.37512559E-01
  5.49780125E-02  5.72917970E-16 -3.64422822E-02  1.65112658E+00 -1.08387220E-01
 -1.91696811E-16  1.75793776E-02 -7.96486274E-01  5.22848665E-02  1.37184880E-16
  4.30148128E-18  6.68337841E-16  1.01481367E-16  2.33969322E-16  1.24260502E-01
  2.48040321E-01  1.47351431E-16 -1.04199286E-16 -2.77888189E-17 -1.84058276E+00
 -5.61580711E-16  4.51810264E-16  1.37000485E-16  2.53184225E+00  8.53674612E-16
 -5.39059478E-16 -2.85017608E-16 -1.12254510E+00 -5.17949195E-16  1.73174178E-16
  2.13320876E-16 -1.94495314E-15 -1.09916517E-16  1.23179546E-18 -1.66143800E-16
  9.41565215E-18 -7.74752137E-17 -1.68583691E-16  8.88863423E-17  2.79639318E-17
 -9.32700896E-17  1.27296170E-15  3.54075248E-16 -9.88335653E-17 -3.00022903E-16
 -1.63633383E-15 -6.12595664E-16 -2.04800448E-17  8.46347410E-16  8.76283385E-16
  3.19040768E-16  2.26766409E-16 -8.87073726E-16 -4.12262895E-01  2.66080104E-11
  2.14881116E-10  9.11064929E-01  5.75791687E-12  1.15005342E-16  2.94501428E-16
  1.21715855E-16 -2.57625926E-17 -1.90699956E-16 -2.40654023E-15 -1.72455780E-16
  2.16448000E-16 -2.20926933E-16  3.72195038E-15  4.65953846E-16 -5.67376196E-16
  3.70443766E-16 -2.20080874E-15 -4.29761349E-16  2.96258501E-16 -2.27026236E-16
  9.11064929E-01 -1.21475841E-10  5.93530510E-11  4.12262895E-01 -3.11623662E-11
 -2.92701462E-17  8.94405066E-20  1.66136035E-16  7.10407825E-16 -4.65298321E-16
  2.29715427E-16  6.30818037E-16 -2.30640598E-16 -1.81846244E-16 -5.24974837E-16
 -2.25613538E-16 -5.61204728E-16  2.53510441E-16  4.15787029E-16  2.78815474E-16
  2.62716130E-16 -1.76198776E-16 -3.48307862E-11 -5.88806059E-01  6.88226609E-01
 -1.63567251E-10  4.23853229E-01  1.61949346E-17 -8.85851200E-18 -2.58927761E-17
  6.36343008E-16 -1.80182601E-16 -2.22746874E-16  1.22980605E-16 -4.27813556E-16
 -1.07600612E-15  7.60943992E-16  3.01203985E-17  1.74036301E-16  1.86618832E-15
 -7.61777807E-16 -2.23131365E-16 -4.21238668E-16 -8.43396333E-16  1.25272268E-10
  8.08072984E-01  4.89524985E-01 -8.44430594E-11  3.27693975E-01  3.62492288E-18
 -8.68997390E-18 -4.77280214E-16 -3.64363334E-16 -7.33064324E-17  4.93925131E-17
 -3.58695594E-18  3.19605414E-16 -2.66733288E-16 -9.15935242E-17  3.32266743E-16
 -2.27386375E-16  5.19614193E-16  4.06996355E-17  1.00972190E-16  4.61151934E-16
 -3.70871880E-16  5.30212317E-12 -1.80409671E-02 -5.35452542E-01  1.23880631E-10
  8.44372607E-01  1.02338090E-16  1.92016949E-16 -1.02206629E+00  6.43017847E-01
  4.56493536E-01 -1.16142795E-15  1.24127272E+00 -7.80928327E-01 -5.54399438E-01
  1.36753006E-15 -6.98156839E-01  4.39235022E-01  3.11823302E-01 -5.92441139E-16
  2.43702341E-01 -1.53321714E-01 -1.08846701E-01  5.18945845E-16  1.54282238E-16
 -2.41293983E-16 -8.40085453E-17 -3.72958249E-16  2.05567253E-17  7.46783914E-18
 -7.80664338E-01 -7.19423950E-01 -7.34486326E-01 -2.40986898E-17  9.48096383E-01
  8.73721537E-01  8.92014398E-01  2.76569182E-16 -5.33259099E-01 -4.91426787E-01
 -5.01715651E-01 -9.28701429E-17  1.86142259E-01  1.71540049E-01  1.75131535E-01
 -2.96716737E-17  3.32250733E-16  2.59959359E-16  9.58112353E-18 -3.38369302E-16
  6.96194938E-18  2.48886853E-17  1.11451746E-01  8.57575081E-01 -9.58447328E-01
 -8.62311143E-17 -1.35355226E-01 -1.04150247E+00  1.16400917E+00 -7.27035569E-17
  7.61308734E-02  5.85795575E-01 -6.54699764E-01  4.16027813E-17 -2.65746478E-02
 -2.04480921E-01  2.28532984E-01 -2.04636374E-17  2.51277612E-16 -1.12010058E-15
 -3.92573011E-17 -2.30382548E-16 -2.14456005E+00  2.25383882E+00  6.79356876E-18
 -6.58751663E-18 -3.77954136E-18 -3.25865876E-01 -9.47125593E-18  7.22977460E-18
  5.66354054E-18  2.78152542E-01  5.26261758E-18 -3.86340242E-18 -3.07302535E-18
 -1.05022739E-01 -1.89931975E-18  1.38478417E-18  1.09500065E-18 -6.28124870E-18
  2.25700319E-16 -7.35213123E-17 -3.22846842E-18  3.55423250E-19
Beta MO coefficients                       R   N=         484
  5.58370431E-01  4.66182531E-01  1.29157700E-17 -1.89142592E-16 -2.67517322E-17
  1.01558315E-02 -1.82433980E-17  2.36839194E-16  4.76807241E-17 -5.06577896E-03
  1.02358980E-17 -1.36568934E-16  5.45664183E-17  1.78763926E-03 -3.82199353E-18
  5.43340091E-17 -1.24165383E-16 -1.72524782E-17  3.10261362E-17 -7.98206650E-18
  3.44182121E-18  1.87956070E-18 -1.27111672E-01 -2.00201296E-01  9.23607515E-17
  1.10303898E-16  3.22365746E-16  5.70339685E-01 -5.48739611E-16  1.62099058E-16
 -1.17586979E-16  5.24725218E-01  1.31906206E-16 -5.99882689E-17  2.13794717E-16
  3.20841337E-02 -5.06654782E-17  1.46125273E-16 -1.58798117E-16 -8.92444153E-16
  1.32180194E-17  1.62559553E-19  2.24272791E-16  9.19689106E-18 -1.44402467E-17
 -1.67573671E-17  2.62435546E-01 -1.06263934E-02 -4.73447898E-04 -2.66787368E-17
  3.77827857E-01 -1.52987943E-02 -6.81621859E-04  1.08714995E-17  4.22953341E-01
 -1.71259902E-02 -7.63030669E-04  5.19270294E-16  2.30532898E-01 -9.33460922E-03
 -4.15893799E-04  1.93005168E-17  1.68411481E-17 -2.14831043E-17 -1.40422822E-16
  2.14878743E-17  3.72283173E-18  5.90954259E-18  1.06329608E-02  2.62397046E-01
  4.50445988E-03  3.89446745E-17  1.53082494E-02  3.77772430E-01  6.48506062E-03
 -3.33578218E-17  1.71365745E-02  4.22891293E-01  7.25959721E-03 -2.69802115E-16
  9.34037826E-03  2.30499079E-01  3.95688088E-03 -8.48828441E-18 -2.86348972E-17
  3.48440941E-17 -6.92689364E-18 -8.51761028E-17  7.80071668E-18  7.92153404E-18
  2.90747648E-04 -4.51993114E-03  2.62611968E-01  2.06684424E-17  4.18588727E-04
 -6.50733456E-03  3.78081852E-01  6.22597601E-18  4.68582443E-04 -7.28453141E-03
  4.23237671E-01 -3.23623276E-16  2.55403276E-04 -3.97047139E-03  2.30687874E-01
  9.83105493E-18 -4.93114891E-17  5.51094475E-17 -7.71530442E-17  2.57636647E-18
  4.32542467E-02  6.66021431E-02 -1.91726289E-16  1.11738018E-16  7.23175111E-17
 -1.45301053E-01 -1.02834992E-16  1.10368373E-16  1.77140962E-16 -9.65833144E-01
 -4.32231994E-16  3.01460469E-16  3.01964301E-16  1.54902177E+00  3.22055568E-16
 -2.94380436E-16 -3.45484337E-16  5.59616230E-16 -3.65114361E-17 -8.74917922E-18
  2.35802841E-17 -3.03457216E-17 -2.76282743E-18 -8.80361281E-18 -1.61725367E-01
  2.74585474E-03  1.03034127E-02  9.16708468E-17 -1.72286934E-01  2.92517433E-03
  1.09762829E-02  4.52532916E-17 -5.79369960E-01  9.83683497E-03  3.69112644E-02
 -4.28646837E-16  1.21517619E+00 -2.06318733E-02 -7.74180449E-02 -8.18235772E-17
 -6.97610504E-17  1.83924536E-16 -4.61191384E-17  4.66551221E-17  7.88697594E-18
  1.30168224E-17 -2.77970613E-03 -1.62052061E-01 -4.44277691E-04 -8.45763080E-17
 -2.96123641E-03 -1.72634962E-01 -4.73291496E-04 -9.27447913E-17 -9.95810524E-03
 -5.80540315E-01 -1.59159415E-03  3.90886492E-16  2.08862267E-02  1.21763090E+00
  3.33822504E-03  3.28569691E-18 -5.21094756E-18  1.08217298E-16 -1.94538975E-17
  4.79861021E-17  1.26964133E-17  2.39327534E-17 -1.02943317E-02  6.20024663E-04
 -1.61748066E-01 -1.22157890E-16 -1.09666089E-02  6.60515723E-04 -1.72311114E-01
 -1.45696540E-16 -3.68787324E-02  2.22119553E-03 -5.79451275E-01  4.83114534E-16
  7.73498119E-02 -4.65875711E-03  1.21534674E+00 -1.38698194E-17 -8.77898280E-18
  1.34067648E-16 -2.99206312E-18  2.09977372E-17 -2.53337043E-17 -5.67431678E-17
 -2.59434380E-01 -8.07056290E-02 -2.13536676E-02  4.90358909E-16 -8.61978477E-01
 -2.68146863E-01 -7.09481984E-02 -7.87571432E-16  1.52808024E+00  4.75359806E-01
  1.25774068E-01  3.40376841E-16 -7.05902274E-01 -2.19594207E-01 -5.81017925E-02
 -3.83771409E-17 -1.54960675E-16  4.77602023E-17  2.38778287E-16  7.19103719E-17
  2.34765756E-17  4.20176614E-17  5.01748783E-02 -2.06453333E-01  1.70690006E-01
 -3.06643792E-16  1.66707532E-01 -6.85947366E-01  5.67122643E-01  4.03698361E-16
 -2.95532303E-01  1.21601947E+00 -1.00537186E+00 -1.84313851E-16  1.36522232E-01
 -5.61744659E-01  4.64435220E-01 -4.20400116E-18 -2.85018421E-17 -3.32543821E-17
  1.25670104E-17 -8.24265793E-17 -9.47776695E-18 -1.40636214E-17  6.67222546E-02
 -1.58553455E-01 -2.11387128E-01 -9.20851554E-18  2.21686684E-01 -5.26798589E-01
 -7.02340048E-01  2.26065564E-16 -3.92997098E-01  9.33887021E-01  1.24507975E+00
 -1.40326697E-16  1.81546452E-01 -4.31412537E-01 -5.75169161E-01  1.17139362E-16
 -6.33147872E-17 -1.85878416E-16  2.51381850E-16  1.90078000E-16  1.29809188E-01
  2.56324018E-01 -1.17130504E-16 -2.05330484E-16 -4.78255589E-16 -1.86742843E+00
 -3.12551314E-16  3.52043053E-16  4.97493264E-16  2.48217536E+00  4.15564726E-16
 -1.32506510E-16  5.98445039E-17 -1.06901487E+00 -1.49405516E-16 -4.97628364E-17
 -2.69072566E-16  7.35947116E-17 -1.10484886E-16  1.58119661E-17 -2.39530237E-18
 -5.17010293E-17  1.90575758E-18 -4.58356558E-18 -1.03793550E-16  1.57947449E-16
 -6.81770440E-17  1.91798167E-16  5.58570744E-16  3.04281220E-16  7.42989779E-16
 -4.67358593E-16 -6.95998427E-16 -7.89257685E-16 -9.80587655E-16  1.27055135E-16
  4.89681258E-16  3.43887896E-16  2.98891203E-16  3.46160230E-02  1.77631799E-11
  2.38439076E-11  9.99400686E-01 -6.41055172E-11 -1.88711070E-16 -2.35358959E-16
 -4.87460062E-17  1.51465692E-16 -4.30660085E-17  9.14517233E-16 -6.24828524E-17
 -1.06967707E-16  3.49885810E-16  7.29496290E-16  2.25650340E-16 -5.90486145E-17
 -5.68139407E-16 -7.60902469E-16 -1.44691563E-16  6.34292610E-17  3.34329639E-16
  9.99400686E-01  2.90885825E-11  7.09503606E-11 -3.46160230E-02  4.25110917E-11
  5.34036265E-18  2.02621664E-17 -4.75116294E-16  1.79336682E-16 -1.62574321E-17
 -7.11256568E-17  2.15119462E-16 -4.18961032E-16 -5.28233412E-16 -1.36800985E-16
 -5.41011063E-16  5.19458099E-16  5.70444079E-16  3.56743510E-16  3.42394426E-16
 -6.32824479E-16 -3.89307914E-16 -6.40972869E-11  3.65654533E-01  8.91795736E-01
 -4.26471816E-11 -2.66452863E-01  2.50411800E-17  5.84758548E-17 -6.03960921E-17
  6.22260183E-16  6.13029025E-16 -3.56190747E-16 -4.80080364E-16 -1.02650574E-15
 -4.48808449E-16  3.17562715E-16  3.21459784E-16  4.43493019E-16  3.84808075E-16
  7.64999437E-17 -1.49932168E-16 -3.65527035E-16 -2.67906970E-16  1.19107830E-11
  8.85060420E-01 -4.21745379E-01 -1.87160911E-11 -1.96974336E-01  2.14526142E-17
  4.28500408E-17 -3.29641576E-16 -6.11227313E-16 -8.66430849E-17 -2.61554834E-16
  3.01304093E-16  4.54017597E-16  1.97198044E-16  3.22373031E-16 -3.12093464E-16
 -7.26064608E-17 -6.43347963E-16 -2.14609369E-16  1.03121055E-16 -5.46605133E-17
  4.71990374E-16 -5.82927560E-11  2.88036136E-01  1.63802324E-01  5.35119239E-11
  9.43506218E-01  1.90351740E-17  2.86033527E-18 -7.20938522E-01 -1.00157768E+00
  3.96467624E-01 -8.70509836E-17  8.63931030E-01  1.20023276E+00 -4.75103872E-01
  5.55266353E-16 -4.78981863E-01 -6.65434746E-01  2.63407760E-01 -3.24900975E-16
  1.66645059E-01  2.31514847E-01 -9.16435574E-02  1.78138797E-16  3.86609772E-16
 -5.24718951E-16 -5.58545129E-17 -8.89911013E-16 -8.95224502E-17 -1.74638278E-16
  6.60737764E-01 -7.87953824E-01 -7.89082474E-01  1.07789629E-15 -7.91789923E-01
  9.44238292E-01  9.45590802E-01 -1.22243466E-15  4.38985289E-01 -5.23505929E-01
 -5.24255789E-01  5.51925303E-16 -1.52729644E-01  1.82135658E-01  1.82396546E-01
  3.08369184E-16  9.47893924E-16 -2.10853561E-16 -7.45300469E-17 -7.11990566E-16
 -2.92158272E-16 -3.93845082E-16 -8.50746747E-01  2.36786192E-01 -9.48819816E-01
  1.78607740E-15  1.01948570E+00 -2.83750878E-01  1.13701079E+00 -1.92677562E-15
 -5.65224703E-01  1.57317563E-01 -6.30383132E-01  8.16859651E-16  1.96650252E-01
 -5.47331677E-02  2.19319859E-01 -2.69989787E-16  1.61305407E-16 -3.72232597E-16
 -4.08741535E-16 -1.02687098E-16 -2.14405180E+00  2.25435655E+00  1.44469491E-19
 -6.17383663E-18  1.13741344E-17 -3.26628214E-01 -8.82572913E-19  6.41538635E-18
 -1.28707439E-17  2.78254408E-01  2.38805681E-19 -3.27380949E-18  6.74871157E-18
 -1.05014459E-01 -6.64581359E-20  1.15321936E-18 -1.79349509E-18 -2.35144348E-17
 -4.68068674E-17 -1.64226269E-17  7.95521596E-18  4.40845342E-19
Total SCF Density                          R   N=         253
  6.55250023E-01  5.74122362E-01  5.21377918E-01 -1.18585314E-16 -1.10142263E-16
  1.00638073E-01 -2.18604456E-16 -1.83194575E-16 -3.82892773E-17  1.00638073E-01
  2.89810097E-17  4.55890973E-18  3.37059821E-17 -3.35563749E-17  1.00638073E-01
 -1.44632124E-01 -2.40565190E-01  7.71301748E-17 -4.33699289E-18  1.06076016E-16
  7.38951885E-01  1.72537598E-16  1.82801542E-16  1.50244076E-01 -7.23383078E-17
  1.10856284E-16 -2.03462478E-16  2.24301616E-01  2.39661260E-16  1.78179328E-16
 -4.98241720E-17  1.50244076E-01 -1.30563776E-17  1.45556130E-16 -1.00905341E-16
  2.24301616E-01 -5.14584330E-17 -4.18970749E-17  1.09850009E-16 -1.82501719E-17
  1.50244076E-01 -3.01735057E-17  2.51094447E-16  2.79622517E-17  2.24301616E-01
 -1.37918088E-01 -2.14054024E-01  9.96982115E-17 -1.73907714E-17  9.75039158E-17
  6.08379185E-01 -1.66119397E-16  7.09308193E-17 -4.91394287E-17  5.06809422E-01
 -8.11189357E-17 -8.13482998E-17  1.24868185E-01  3.55143974E-17 -5.60524053E-17
  9.78287661E-17  1.86417571E-01  5.65242026E-17 -9.96703669E-18  1.24779287E-16
  1.54932058E-01 -1.37158794E-16 -9.75348477E-17 -8.14235832E-17  1.24868185E-01
 -5.15260730E-17 -1.09370707E-16 -1.42440449E-16  1.86417571E-01 -3.77010130E-17
 -1.21740663E-16  2.43267862E-18  1.54932058E-01  6.96935188E-17  5.22438246E-17
 -7.41577345E-18 -2.68865198E-17  1.24868185E-01  1.85099802E-17  6.46057440E-17
  5.73060140E-18  1.86417571E-01  1.83234200E-17 -1.29612135E-16 -4.56906512E-17
  1.54932058E-01 -1.19039665E-03 -3.66520814E-03 -1.36610614E-16  8.27732633E-17
  1.11575218E-16  1.62271477E-02 -2.24993964E-16  1.25123334E-16  1.45831696E-16
  1.52150691E-02 -1.68582794E-16  9.67913079E-17  1.32467978E-16  1.05031069E-03
  2.99878151E-17  3.68281323E-17  1.58019931E-02  4.31999509E-17  3.75595585E-18
 -6.95656726E-17  2.35910306E-02  6.56221835E-17  1.49500256E-17 -5.28915480E-17
  1.96065579E-02  4.81481056E-17 -2.79414993E-18 -2.31584152E-17  2.48119801E-03
  3.13618031E-17  3.01290980E-18  5.84685668E-18  1.58019931E-02  7.08806435E-18
  1.44633644E-16  5.59634668E-18  2.35910306E-02  1.56018969E-17  1.15920013E-16
  1.97333266E-17  1.96065579E-02  1.11520093E-17  1.71530604E-17  8.61996314E-18
  2.48119801E-03 -7.55460391E-17 -4.73843575E-17 -2.92041078E-17  2.20037852E-17
  1.58019931E-02 -1.00263368E-16 -3.41928143E-17  3.86484458E-17  2.35910306E-02
 -8.98978336E-17 -5.15961649E-17  2.57738097E-17  1.96065579E-02  1.03802797E-17
 -4.82432909E-18  5.39449476E-18  2.48119801E-03 -1.49633269E-16 -6.75086473E-17
  9.76529588E-18 -9.91289339E-18 -4.94364216E-18 -3.55173545E-16  1.45787555E-17
 -1.47991060E-17 -7.38043692E-18 -3.45737277E-16  1.21164361E-17 -1.22995699E-17
 -6.13389752E-18 -3.05166819E-17  1.53332763E-18 -1.55650311E-18 -7.76241010E-19
  1.01740807E-30 -8.26852898E-18 -9.84052695E-18 -1.51837231E-17 -3.24033313E-18
  9.83391105E-18  1.72679373E-17 -2.26680061E-17 -4.83754154E-18  1.46811921E-17
  1.45403534E-17 -1.88394302E-17 -4.02049152E-18  1.22015714E-17  3.26007591E-19
 -2.38411847E-18 -5.08790763E-19  1.54410145E-18  5.43167791E-33  6.27560220E-33
 -1.62408965E-17 -1.40579798E-17  2.21024887E-17 -1.47088707E-18 -7.67313512E-18
  2.43296535E-18  3.29971342E-17 -2.19590918E-18 -1.14553376E-17  2.30563756E-18
  2.74239915E-17 -1.82502500E-18 -9.52055650E-18 -7.54100381E-20  3.47048949E-18
 -2.30955807E-19 -1.20482065E-18  1.16784688E-32 -3.42678990E-33  5.94761444E-33
 -7.07971026E-18 -1.47137505E-17 -3.58559797E-18 -4.93203533E-18 -4.77904280E-17
  5.13530066E-17 -5.35299254E-18 -7.36310891E-18 -7.13470408E-17  6.02396918E-17
 -4.44888399E-18 -6.11949617E-18 -5.92966841E-17  7.61319463E-18 -5.63003571E-19
 -7.74418528E-19 -7.50395940E-18 -2.29904462E-31 -3.00326641E-33  2.30462512E-33
  8.76426080E-32 -1.41583260E-18 -3.06372597E-18  1.31738930E-17 -8.14715012E-18
 -1.29600877E-17  1.16130609E-17  1.96675009E-17 -1.21630016E-17 -1.93483078E-17
  9.56558122E-18  1.63457037E-17 -1.01086976E-17 -1.60804216E-17  2.65864953E-19
  2.06853889E-18 -1.27924956E-18 -2.03496759E-18 -3.08551047E-33 -2.66007574E-33
  4.02785914E-33  6.97594148E-33  4.23865947E-33
Spin SCF Density                           R   N=         253
 -6.19808062E-04  2.62143719E-03  6.56449541E-03 -1.09528623E-16 -8.52029910E-17
  1.00638073E-01  2.06606315E-17  3.73213371E-17 -3.82892773E-17  1.00638073E-01
  1.40808660E-16  1.58577371E-16  3.37059821E-17 -3.35563749E-17  1.00638073E-01
 -1.09798939E-02 -2.16686439E-02 -2.84861699E-17 -1.26316574E-16 -2.61096569E-16
  8.81708898E-02  5.34083272E-17 -1.99057133E-17  1.50244076E-01 -7.23383078E-17
  1.10856284E-16  4.22844029E-16  2.24301616E-01  1.63826193E-17  2.22636214E-17
 -4.98241720E-17  1.50244076E-01 -1.30563776E-17 -4.41575199E-17 -1.00905341E-16
  2.24301616E-01 -1.34598801E-16 -1.33435047E-16  1.09850009E-16 -1.82501719E-17
  1.50244076E-01  1.02987061E-16  2.51094447E-16  2.79622517E-17  2.24301616E-01
  1.13647394E-03  7.70469096E-04  2.90103740E-18 -1.35065555E-16 -2.41073994E-16
  9.93884793E-03  4.09570793E-16 -9.67845581E-17  7.47453581E-17 -4.39150120E-02
 -5.90161444E-17 -3.80763066E-17  1.24868185E-01  3.55143974E-17 -5.60524053E-17
 -5.28418301E-17  1.86417571E-01  5.65242026E-17 -9.96703669E-18 -1.35460326E-17
  1.54932058E-01  1.02896783E-19  5.77779680E-18 -8.14235832E-17  1.24868185E-01
 -5.15260730E-17 -3.81693842E-17 -1.42440449E-16  1.86417571E-01 -3.77010130E-17
 -6.01696038E-17  2.43267862E-18  1.54932058E-01  6.31085777E-17  8.69719616E-17
 -7.41577345E-18 -2.68865198E-17  1.24868185E-01 -2.26469578E-16  6.46057440E-17
  5.73060140E-18  1.86417571E-01 -2.05490697E-16 -1.29612135E-16 -4.56906512E-17
  1.54932058E-01  4.96980929E-03  7.51462976E-03 -1.42583421E-16  7.63714907E-17
  9.09852113E-17 -2.04068717E-02 -1.89717068E-16  1.13874953E-16  1.53206576E-16
 -1.84375275E-02 -1.77083583E-16  1.01128923E-16  1.18554051E-16 -1.01486389E-03
  2.13756441E-17  2.01050367E-17  1.58019931E-02  4.31999509E-17  3.75595585E-18
 -1.16949757E-17  2.35910306E-02  6.56221835E-17  1.49500256E-17  2.40637497E-19
  1.96065579E-02  4.81481056E-17 -2.79414993E-18 -1.98936345E-17  2.48119801E-03
  7.83325058E-18  1.08627163E-17  5.84685668E-18  1.58019931E-02  7.08806435E-18
 -2.31520550E-17  5.59634668E-18  2.35910306E-02  1.56018969E-17 -3.68807306E-17
  1.97333266E-17  1.96065579E-02  1.11520093E-17  7.58219559E-18  8.61996314E-18
  2.48119801E-03  2.27443296E-17  4.79992991E-18 -2.92041078E-17  2.20037852E-17
  1.58019931E-02  8.33963736E-17 -3.41928143E-17  3.86484458E-17  2.35910306E-02
  7.54949314E-17 -5.15961649E-17  2.57738097E-17  1.96065579E-02  2.10140056E-17
 -4.82432909E-18  5.39449476E-18  2.48119801E-03 -3.57246858E-16 -4.08759992E-16
  9.76529588E-18 -9.91289339E-18 -4.94364216E-18  6.63169516E-16  1.45787555E-17
 -1.47991060E-17 -7.38043692E-18  5.90663835E-16  1.21164361E-17 -1.22995699E-17
 -6.13389752E-18  2.68115956E-17  1.53332763E-18 -1.55650311E-18 -7.76241010E-19
 -5.76100362E-31 -3.95563540E-17 -3.34756831E-17 -1.51837231E-17 -3.24033313E-18
  9.83391105E-18  1.56022289E-18 -2.26680061E-17 -4.83754154E-18  1.46811921E-17
  9.83040328E-19 -1.88394302E-17 -4.02049152E-18  1.22015714E-17 -6.33096890E-19
 -2.38411847E-18 -5.08790763E-19  1.54410145E-18  3.00949216E-32  4.00092788E-33
 -7.28567020E-18 -6.55069063E-18  2.21024887E-17 -1.47088707E-18 -7.67313512E-18
  2.40966607E-18  3.29971342E-17 -2.19590918E-18 -1.14553376E-17  2.05416860E-18
  2.74239915E-17 -1.82502500E-18 -9.52055650E-18 -5.73030920E-20  3.47048949E-18
 -2.30955807E-19 -1.20482065E-18  1.16931986E-32 -2.93578197E-33  5.82013482E-33
  4.60920462E-17  7.18766226E-17 -3.58559797E-18 -4.93203533E-18 -4.77904280E-17
 -2.04540249E-16 -5.35299254E-18 -7.36310891E-18 -7.13470408E-17 -1.75088616E-16
 -4.44888399E-18 -6.11949617E-18 -5.92966841E-17 -6.79030726E-18 -5.63003571E-19
 -7.74418528E-19 -7.50395940E-18  1.70516180E-31 -9.14572344E-33  2.28665544E-33
 -1.29776539E-32 -1.17675044E-18 -1.13370367E-18  1.31738930E-17 -8.14715012E-18
 -1.29600877E-17  1.08418001E-18  1.96675009E-17 -1.21630016E-17 -1.93483078E-17
 -6.70572474E-20  1.63457037E-17 -1.01086976E-17 -1.60804216E-17 -3.31003565E-19
  2.06853889E-18 -1.27924956E-18 -2.03496759E-18  1.33947670E-32 -3.01983612E-33
  4.05487461E-33  2.83777841E-33  4.06242836E-33
Cartesian Gradient                         R   N=           3
  0.00000000E+00  0.00000000E+00  0.00000000E+00
Dipole Moment                              R   N=           3
  9.60592893E-16 -5.75385532E-16 -3.92546584E-16
