O                                                                       
SP        UB3LYP                                                      6-311++G(d,p)
Number of atoms                            I                1
Charge                                     I                0
Multiplicity                               I                3
Number of electrons                        I                8
Number of alpha electrons                  I                5
Number of beta electrons                   I                3
Number of basis functions                  I               22
Number of independant functions            I               22
Number of contracted shells                I                6
Highest angular momentum                   I                2
Largest degree of contraction              I                6
Number of primitive shells                 I               13
Viriral Ratio                              R      2.002238039243864E+00
SCF Energy                                 R     -7.508987095899194E+01
Total Energy                               R     -7.508987095899194E+01
S**2                                       R      2.003485405446650E+00
S**2 after annihilation                    R      2.000004483772238E+00
RMS Density                                R      1.054971860494213E-05
Atomic numbers                             I   N=           1
           8
Nuclear charges                            R   N=           1
  8.00000000E+00
Current cartesian coordinates              R   N=           3
  0.00000000E+00  0.00000000E+00  0.00000000E+00
Atom types                                 I   N=           1
           0
Force Field                                I                0
MM charges                                 R   N=           1
  0.00000000E+00
ONIOM Charges                              I   N=           4
           0           0           0           0
ONIOM Multiplicities                       I   N=           4
           3           0           0           0
Atom Layers                                I   N=           1
           1
Atom Modifiers                             I   N=           1
           0
Atom types                                 I   N=           1
           0
Link Atoms                                 I   N=           1
           0
Atom Modified MM Charges                   R   N=           1
  0.00000000E+00
Link Distances                             R   N=           1
  0.00000000E+00
MxBond                                     I                0
NBond                                      I   N=           1
           0
IBond                                      I                0
RBond                                      R      0.000000000000000E+00
Shell types                                I   N=           6
           0          -1          -1          -1          -1          -2
Number of primitives per shell             I   N=           6
           6           3           1           1           1           1
Shell to atom map                          I   N=           6
           1           1           1           1           1           1
Primitive exponents                        R   N=          13
  8.58850000E+03  1.29723000E+03  2.99296000E+02  8.73771000E+01  2.56789000E+01
  3.74004000E+00  4.21175000E+01  9.62837000E+00  2.85332000E+00  9.05661000E-01
  2.55611000E-01  8.45000000E-02  1.29200000E+00
Contraction coefficients                   R   N=          13
  1.89515008E-03  1.43859006E-02  7.07320031E-02  2.40001011E-01  5.94797026E-01
  2.80802012E-01  1.13889012E-01  9.20811101E-01 -3.27447036E-03  1.00000000E+00
  1.00000000E+00  1.00000000E+00  1.00000000E+00
P(S=P) Contraction coefficients            R   N=          13
  0.00000000E+00  0.00000000E+00  0.00000000E+00  0.00000000E+00  0.00000000E+00
  0.00000000E+00  3.65113974E-02  2.37152983E-01  8.19701941E-01  1.00000000E+00
  1.00000000E+00  1.00000000E+00  0.00000000E+00
Coordinates of each shell                  R   N=          18
  0.00000000E+00  0.00000000E+00  0.00000000E+00  0.00000000E+00  0.00000000E+00
  0.00000000E+00  0.00000000E+00  0.00000000E+00  0.00000000E+00  0.00000000E+00
  0.00000000E+00  0.00000000E+00  0.00000000E+00  0.00000000E+00  0.00000000E+00
  0.00000000E+00  0.00000000E+00  0.00000000E+00
Alpha Orbital Energies                     R   N=          22
 -1.92781972E+01 -1.02501790E+00 -4.66222258E-01 -4.66222258E-01 -3.91803425E-01
  8.06097722E-02  1.40109142E-01  1.40109142E-01  1.47167224E-01  9.24012235E-01
  9.24012235E-01  9.62443319E-01  1.14958831E+00  2.63458307E+00  2.63459426E+00
  2.69299096E+00  2.69299096E+00  2.71354268E+00  4.76128109E+00  4.76128109E+00
  4.82662275E+00  4.95709286E+01
Beta Orbital Energies                      R   N=          22
 -1.92263952E+01 -8.66557938E-01 -3.39102184E-01 -1.90700587E-01 -1.90700587E-01
  9.40689695E-02  1.51604920E-01  1.65712034E-01  1.65712034E-01  9.85606031E-01
  1.01111497E+00  1.01111497E+00  1.21900540E+00  2.78899095E+00  2.78899095E+00
  2.79594792E+00  2.81508822E+00  2.81513649E+00  4.87001289E+00  4.89979309E+00
  4.89979309E+00  4.96234593E+01
Alpha MO coefficients                      R   N=         484
  5.50616860E-01  4.70290003E-01  3.32119939E-16  3.41593736E-16 -1.46019909E-16
  1.32464332E-02  8.20528304E-17 -4.13797609E-16 -1.18390442E-16 -6.22493640E-03
 -6.19971998E-17  2.32225742E-16  1.73045983E-16  2.33587639E-03  2.16128866E-17
 -8.26955296E-17 -1.74372557E-16  1.52979329E-04 -5.24259247E-16  6.98330136E-17
 -2.64967971E-04  2.51245521E-20 -1.33013306E-01 -2.15235070E-01  8.50088498E-15
  1.90723156E-16 -6.28276891E-15  6.58740479E-01  1.44599470E-14 -2.60622214E-16
 -1.09646399E-14  4.71235731E-01  7.31935479E-15  1.61344186E-16 -5.93193849E-15
 -8.23279088E-03 -3.34631918E-16 -9.57027535E-17  6.62093195E-16  7.97382446E-03
 -2.34744111E-14  6.38762770E-18 -1.38110691E-02 -1.03810865E-17 -2.19974508E-15
 -3.55059305E-15 -2.81580369E-13 -5.53038956E-04  3.31475865E-01  1.04290468E-14
 -4.12211376E-13 -8.11520728E-04  4.86402508E-01  6.89911079E-15 -3.24820525E-13
 -6.33420735E-04  3.79654424E-01  5.86095458E-15 -3.42984493E-14 -6.34679495E-05
  3.80408889E-02 -2.65983763E-15  3.51242516E-15 -1.34678246E-16 -4.52231265E-16
 -1.70547997E-17 -6.07141713E-18 -1.11286310E-17 -6.36361925E-16  3.31475865E-01
  5.53038956E-04  2.88859217E-17 -9.18823722E-16  4.86402508E-01  8.11520728E-04
  2.68973941E-17 -7.33113455E-16  3.79654424E-01  6.33420735E-04  1.07323546E-17
 -9.65898117E-17  3.80408889E-02  6.34679495E-05 -2.76190641E-18 -2.37634937E-17
 -2.35261008E-15 -5.52878538E-19  3.27900561E-15  2.65460904E-15  4.31395879E-15
  3.23995512E-01  2.21531853E-16  2.76366064E-13 -1.18770347E-14  4.67826386E-01
  1.68889107E-16  3.99959758E-13 -9.74531848E-15  3.93368230E-01  1.55914893E-16
  3.33150313E-13 -9.06644086E-15  6.42178894E-02  6.40313007E-18  5.07452467E-14
 -2.61731753E-15 -2.44964795E-15 -5.65412785E-17  4.07148246E-15 -1.25529762E-17
  3.99964835E-02  6.43896027E-02 -6.43672913E-15 -2.74207645E-17  5.72731337E-15
 -1.77258379E-01 -8.29174267E-15  2.95193114E-20  7.41128453E-15 -8.85775957E-01
 -1.82077604E-14 -8.11861894E-17  1.48690389E-14  1.54381897E+00  7.28378694E-14
  1.74288856E-16 -6.20963394E-14 -2.11731058E-03  5.85827302E-15 -4.00530032E-20
  3.66728950E-03  4.01782631E-17  2.24023482E-15  3.57990666E-15  2.18835842E-13
  1.94695138E-05 -1.23118498E-01 -8.98985493E-15  2.30230482E-13  2.09333294E-05
 -1.32375164E-01 -5.03415805E-14  7.44603478E-13  6.43929611E-05 -4.07198903E-01
  8.31142267E-14 -2.10685516E-12 -1.91889437E-04  1.21344270E+00  7.06137672E-16
 -1.16252064E-15 -7.42810567E-18  2.58656932E-16 -4.52069199E-20 -7.07529070E-18
 -1.01506256E-17 -8.10954800E-16 -1.23118498E-01 -1.94695138E-05  9.51067985E-18
 -8.61105752E-16 -1.32375164E-01 -2.09333294E-05  2.57144416E-16 -2.81166463E-15
 -4.07198903E-01 -6.43929611E-05 -3.99502047E-16  7.70567139E-15  1.21344270E+00
  1.91889437E-04  7.64246872E-19 -1.10305973E-17  7.66596798E-16 -5.18902199E-20
 -1.21208015E-15 -2.63077343E-15 -4.21711990E-15 -1.29053550E-01  7.98644590E-16
 -2.17111658E-13  1.01482159E-14 -1.32977236E-01  8.58792062E-16 -2.28955048E-13
  6.01760612E-14 -4.50614496E-01  2.95457383E-15 -7.36093202E-13 -9.72360717E-14
  1.22706228E+00 -8.43845287E-15  2.10502324E-12  9.56670304E-16  8.76687075E-16
  3.38700268E-17 -1.68422934E-15  5.56710113E-18 -3.08675013E-15 -6.15790909E-15
  2.44372320E-13 -9.67955587E-03 -2.61490294E-01  4.69674405E-14  7.43591686E-13
 -2.93810533E-02 -7.93720329E-01 -7.14575130E-14 -1.54839880E-12  6.15217476E-02
  1.66199153E+00  3.59638256E-14  7.73786335E-13 -3.08534531E-02 -8.33496767E-01
  1.30288549E-15 -2.29118160E-15  1.60412177E-16 -1.21055100E-16 -9.30349968E-17
  7.06332573E-17  1.41892044E-16 -1.09245192E-14 -2.61490294E-01  9.67955587E-03
 -1.07887147E-15 -3.32857216E-14 -7.93720329E-01  2.93810533E-02  1.62738475E-15
  6.92881364E-14  1.66199153E+00 -6.15217476E-02 -7.73249970E-16 -3.49211450E-14
 -8.33496767E-01  3.08534531E-02  7.85852693E-17  2.45289338E-16  1.27737417E-15
  7.19168667E-17 -1.97025815E-15  5.53925356E-15  1.09529166E-14 -2.64928811E-01
  1.77613794E-15 -2.46738048E-13 -8.33499781E-14 -8.09851169E-01  5.69928309E-15
 -7.52150553E-13  1.25430891E-13  1.65187548E+00 -1.17093392E-14  1.54168523E-12
 -6.15387506E-14 -8.13395725E-01  5.75649995E-15 -7.61185681E-13  1.58743498E-15
  1.25648179E-15  5.63667601E-16 -2.25824888E-15  1.14287030E-16  1.22209519E-01
  2.41488464E-01  1.18379284E-14 -3.49423205E-16 -6.12064426E-15 -1.78303062E+00
  4.17787438E-14 -5.50498679E-17 -2.36028103E-14  2.52615044E+00 -7.88342457E-14
  6.57854025E-16  4.52356616E-14 -1.15918538E+00  3.75725181E-14 -5.11050561E-16
 -2.17573060E-14 -3.49150014E-03  8.67606935E-15 -1.25700937E-17  6.04745564E-03
 -1.47281747E-18  1.92005919E-16  3.65989834E-16 -1.31166036E-16  5.87646506E-16
  3.38017329E-15 -1.96608850E-15 -3.92607708E-16 -3.25295393E-16 -6.65595725E-16
  1.80669906E-15  6.07440044E-16 -2.43451358E-16  1.03156353E-15 -6.73672553E-16
 -5.83552738E-16  1.38822224E-16 -2.60633909E-16  8.66025404E-01 -8.02669614E-13
 -2.60386261E-11  5.00000000E-01  6.50014833E-15 -8.54545411E-18  2.16417642E-18
 -1.13512991E-16  3.45237134E-15  4.61555320E-17  1.83078777E-17  9.33714978E-16
 -4.93596947E-16  1.25917811E-16  7.78736545E-17 -1.92065744E-15  9.91539253E-16
 -7.11163185E-16 -6.12455239E-17  6.64102139E-16 -8.46727580E-16  4.70848885E-16
  2.25488844E-11 -3.42756581E-14  1.00000000E+00  1.30214755E-11 -8.01563906E-13
  3.55235753E-18  6.11175523E-17  4.32607068E-15  8.95297429E-16 -5.23518928E-15
 -1.34785010E-15 -1.61067956E-15 -2.42605744E-16  1.19523258E-17  3.09687335E-15
  1.45990789E-15 -6.10387707E-16 -2.24010405E-17 -9.76289090E-16 -6.78985374E-16
  4.65823359E-16  3.38982728E-16  1.38995984E-12  9.95639748E-01 -3.97617350E-14
 -8.08169622E-13 -9.32817872E-02 -1.74060427E-17 -2.11729319E-17  2.93871677E-16
 -4.84925240E-15 -5.33710341E-16 -2.70124049E-17  2.75455926E-16  4.54126311E-16
  1.16084623E-17  5.49218837E-16 -4.48630023E-16 -1.00322778E-15  4.62454793E-17
 -5.95965732E-16  2.12130949E-16  1.06097716E-15  2.08172648E-17  1.23287752E-13
  9.32817872E-02  8.01248529E-13 -7.70816552E-14  9.95639748E-01 -3.40757345E-03
 -4.80068590E-03 -6.12244759E-15 -2.15360973E-16 -1.98983331E-15  2.36667779E-02
 -3.65475097E-16  2.53396243E-16  5.19940931E-16 -6.33284666E-03  2.87848865E-17
 -1.30846423E-16 -4.69305957E-16  1.40912802E-03  1.70289747E-16  3.83971410E-17
  1.41443635E-16 -4.99919705E-01  1.40056003E-12 -2.56303932E-15  8.65886330E-01
 -2.29883161E-15 -7.81037913E-17 -1.54887621E-16 -5.61975074E-14 -1.26624250E+00
  7.62716008E-02  9.46470579E-16  6.80252412E-14  1.52432426E+00 -9.18170501E-02
 -1.42862761E-15 -3.96021199E-14 -8.63104467E-01  5.19887456E-02  6.38702866E-16
  1.48544251E-14  3.17014339E-01 -1.90952294E-02  6.35059040E-16  7.13244102E-16
  1.94260169E-15  2.50942336E-16 -2.72435316E-15 -1.87675310E-16  3.08882459E-16
  1.02849864E-12 -7.62716008E-02 -1.26624250E+00 -1.70057926E-15 -1.23744120E-12
  9.18170501E-02  1.52432426E+00  2.69295834E-15  7.00056781E-13 -5.19887456E-02
 -8.63104467E-01 -1.06467590E-15 -2.57032966E-13  1.90952294E-02  3.17014339E-01
  2.25941269E-15 -3.03390313E-15  7.88168861E-16  7.80941381E-17 -1.88267501E-16
  5.20098121E-16 -3.14956183E-16 -1.26920362E+00 -5.78874442E-15 -1.02931451E-12
  1.24432966E-15  1.52465008E+00  6.99614377E-15  1.23712088E-12 -2.76409173E-15
 -8.58555287E-01 -4.10195560E-15 -6.97534671E-13  1.24069012E-15  3.14648167E-01
  1.74191856E-15  2.55752256E-13  1.41898708E-15  3.14773966E-15 -1.25829226E-16
 -2.42075057E-15 -2.20146630E-16 -2.24600626E+00  2.33025421E+00 -2.08881473E-16
  9.78771902E-19  1.07418954E-16 -2.49661774E-01  2.49745248E-16 -7.31251390E-19
 -1.46839179E-16  2.29848550E-01 -1.34879058E-16  4.55655879E-19  1.02445889E-16
 -9.17312740E-02  5.11212809E-17 -2.54298952E-19 -6.01671633E-17  9.60557549E-05
 -6.01834028E-16 -5.31091798E-17 -1.66373448E-04 -1.67707613E-20
Beta MO coefficients                       R   N=         484
  5.52048787E-01  4.69869916E-01  6.61382654E-16  7.91821636E-17 -7.43103521E-16
  1.01642791E-02 -2.99776026E-16 -1.00843188E-16  6.32353472E-16 -4.71975407E-03
  1.59530777E-16  5.98661375E-17 -3.25989984E-16  1.74697864E-03 -6.07737174E-17
 -2.42812207E-17  1.22609909E-16 -1.84181808E-04  1.08291203E-16 -9.59654057E-17
  3.19012250E-04 -3.30256493E-20 -1.28676752E-01 -2.06208345E-01  1.05651096E-14
 -3.74126101E-17 -3.35922442E-15  6.12352663E-01  1.72659603E-14  3.38021000E-17
 -6.31759716E-15  5.02513021E-01  1.00620701E-14 -2.93779970E-17 -3.43442816E-15
  1.08797220E-02  2.85949468E-16  3.40504520E-17  2.24894028E-16 -4.01866704E-03
 -1.14350491E-14 -5.10249792E-18  6.96053549E-03  1.56899318E-18  3.28523056E-15
  5.25546938E-15  3.13621239E-01 -4.79684611E-18  1.45430647E-13 -1.39352624E-14
  4.49192307E-01  1.04248990E-16  2.04710199E-13 -1.36432357E-14  4.07057291E-01
 -1.23094748E-17  1.95091814E-13 -1.03828756E-14  9.17882180E-02  7.72854124E-17
  4.66388087E-14 -2.05625726E-15 -2.10016176E-15  7.79598031E-18  3.47262177E-15
 -7.92768042E-17  2.30126981E-18  2.05626996E-18 -5.07996271E-17  2.85922342E-01
  3.42561917E-05 -1.95124576E-17 -7.71101519E-17  4.14589805E-01  4.96717666E-05
  1.92572243E-17 -3.63270210E-17  4.18834460E-01  5.01803163E-05  1.94571144E-17
 -5.62955319E-17  1.65949952E-01  1.98823685E-05 -2.37511170E-18 -8.64712986E-18
 -2.37638084E-15  4.15110768E-19  3.90789677E-15 -1.16786511E-15 -1.85384903E-15
 -1.34605386E-13 -3.42561917E-05  2.85922342E-01  4.91889325E-15 -1.98170635E-13
 -4.96717666E-05  4.14589805E-01  6.35401806E-15 -1.94134939E-13 -5.01803163E-05
  4.18834460E-01  6.88278047E-16 -7.04949883E-14 -1.98823685E-05  1.65949952E-01
 -2.75911984E-15  4.10624222E-15 -1.95032003E-17  9.90354961E-17  1.24720327E-16
  4.10898585E-02  6.48846202E-02 -8.75631591E-15 -3.47525041E-17  7.13548921E-15
 -1.56994625E-01 -1.04555920E-14  6.24305243E-17  9.51207775E-15 -9.54581437E-01
 -2.71762675E-14 -7.00408354E-18  2.00771681E-14  1.56859413E+00  9.17021865E-14
 -4.74367970E-17 -5.44048888E-14  8.65358873E-04  4.29319977E-15  8.49538822E-17
 -1.49884553E-03 -1.28422126E-19 -3.37823850E-15 -5.32166985E-15 -1.35943046E-01
  5.68472836E-16  5.91490806E-14  1.15560621E-14 -1.39935432E-01  6.28246498E-16
  7.15312949E-14  7.87081651E-14 -4.83502150E-01  1.95185166E-15  1.92830428E-13
 -1.21507597E-13  1.23384877E+00 -4.54284953E-15 -4.11184609E-13  8.93538389E-16
  8.88318969E-16 -6.98247360E-18 -1.25820078E-15  2.34494851E-17 -2.57334506E-18
 -4.63323848E-18 -5.69949529E-16 -1.52533030E-01  4.30648190E-05  5.21326150E-17
 -7.01973671E-16 -1.64608067E-01  4.64739775E-05 -1.38542116E-16 -1.57725310E-15
 -5.43071683E-01  1.53326029E-04  1.25371284E-16  4.58934255E-15  1.23617608E+00
 -3.49010960E-04 -2.72260570E-17  1.62894929E-18  1.04503741E-15 -1.91432151E-17
 -1.90803967E-15  2.08347676E-15  3.28328335E-15 -3.78254907E-14 -4.30648190E-05
 -1.52533030E-01 -7.55274317E-15 -3.05875393E-14 -4.64739775E-05 -1.64608067E-01
 -4.63063761E-14 -1.51642670E-13 -1.53326029E-04 -5.43071683E-01  7.21895908E-14
  4.20641631E-13  3.49010960E-04  1.23617608E+00  1.29316974E-15 -1.89703628E-15
 -7.30909989E-18 -7.69072894E-17 -1.82857452E-17  4.93298887E-15  9.73196881E-15
 -2.67647313E-01 -3.15120992E-15  1.98535252E-13 -7.38338246E-14 -8.25617099E-01
 -9.83546440E-15  6.17119431E-13  1.10318143E-13  1.64210274E+00  1.89992643E-14
 -1.15806503E-12 -5.35619264E-14 -8.01258823E-01 -9.36190830E-15  5.65991118E-13
  1.96660845E-15  1.40738531E-15 -1.50863959E-16 -2.60505167E-15  1.67588116E-16
 -3.52846006E-15 -7.00268315E-15 -1.86326537E-13 -4.30730782E-02 -2.69808735E-01
  5.25331761E-14 -5.75400073E-13 -1.34396873E-01 -8.41858804E-01 -7.74004507E-14
  1.16157025E-12  2.55967581E-01  1.60337482E+00  3.74371375E-14 -5.62029514E-13
 -1.23983826E-01 -7.76631731E-01  1.69372219E-15 -2.91339420E-15  2.09655535E-16
  1.21895945E-16 -6.33194953E-16  6.02079413E-16  1.19637202E-15  3.29126741E-14
 -2.69808735E-01  4.30730782E-02 -8.95132066E-15  1.01753595E-13 -8.41858804E-01
  1.34396873E-01  1.31226203E-14 -2.05415477E-13  1.60337482E+00 -2.55967581E-01
 -6.31466076E-15  9.95365334E-14 -7.76631731E-01  1.23983826E-01 -2.50265283E-16
  3.21656317E-16  1.28198796E-15 -2.57466539E-18 -2.90704280E-15  1.25731163E-01
  2.47015675E-01  1.05585724E-14 -7.08241366E-17 -7.26355938E-15 -1.80140636E+00
  3.80749269E-14  4.89003205E-16 -2.77017372E-14  2.49484599E+00 -6.88242987E-14
 -8.18955364E-16  4.91246690E-14 -1.12540145E+00  3.25655229E-14  6.33645361E-16
 -2.32850608E-14  3.49096973E-03  5.25742643E-15 -7.69993858E-17 -6.04653694E-03
  1.37753319E-18  3.35306712E-16  5.10410583E-16 -6.87060021E-17 -5.86907530E-15
  6.34708072E-17 -2.73389487E-15  2.78431649E-16 -4.76219074E-16  3.43153199E-16
  1.43180854E-15 -3.79303241E-16 -7.90558073E-16 -3.52015801E-16 -5.40881433E-16
  2.62543523E-16  7.74166411E-16  7.82725557E-18 -9.81777698E-15 -4.63858130E-02
 -1.13796118E-12  1.20262137E-13  9.98923599E-01 -7.20885558E-15 -1.09761511E-14
  3.16669599E-15 -7.74263944E-16 -5.19251557E-15  5.88153069E-14  4.07163378E-16
 -1.48665119E-17 -1.80421108E-15 -3.08673725E-14  1.70562978E-16  5.49745867E-16
  4.85498487E-16  1.16583386E-14 -1.13332367E-16 -5.63189833E-16 -5.79941471E-17
  1.84388496E-13  9.98923599E-01 -3.59803971E-14 -2.59949519E-12  4.63858130E-02
  1.87997456E-03  3.21759512E-03 -5.72723678E-15  2.67205284E-17 -1.89677636E-15
 -1.77643469E-02 -4.92719673E-16 -1.13073138E-17 -1.63089824E-16  1.17200682E-02
 -1.20828545E-17 -3.62987775E-17 -9.73271277E-17 -5.22699703E-03  1.98279151E-16
  8.15574007E-17  9.77927005E-17 -4.99970879E-01  2.34616299E-12  3.81614540E-14
  8.65974965E-01 -2.39993212E-16 -3.02863832E-16 -3.92132187E-16 -1.52343170E-16
 -2.12286621E-17  3.09567210E-15  1.38290317E-15  8.11156940E-16  2.28539436E-16
  6.94482572E-17  2.21562828E-15 -1.62348791E-15 -1.08182194E-16  7.28092978E-16
 -2.02632980E-15  8.47750871E-16 -2.77596677E-16 -4.54668388E-16  8.66025404E-01
  1.14104290E-12 -2.97434854E-13  5.00000000E-01  1.29087741E-15 -2.72516280E-17
 -5.83705805E-17  1.35917650E-16  3.25448545E-15 -3.64791807E-17  2.13654385E-16
 -4.31037761E-16 -5.53109514E-16  2.31297951E-17  2.70639404E-17  7.46599499E-16
  1.76996342E-15 -1.69005331E-16 -4.85842698E-17 -5.20966221E-16 -1.15326011E-15
  1.93207625E-16  2.76817591E-13 -1.68956031E-14  1.00000000E+00  1.15499812E-13
  1.13862773E-12  4.10187547E-16 -5.32194431E-16 -1.27051924E+00  3.39472509E-14
  1.48883662E-12  2.29506468E-15  1.52117126E+00 -4.03741665E-14 -1.76474847E-12
 -3.04017243E-15 -8.53012532E-01  2.24823540E-14  9.89002848E-13  1.13918957E-15
  3.12407241E-01 -8.08728822E-15 -3.63029714E-13  1.09718712E-15  1.22763725E-15
  3.42386660E-17 -2.65018264E-15 -4.35248522E-17 -5.80002146E-17  4.60616098E-16
 -1.47870871E-12 -1.16818341E-01 -1.26861205E+00 -2.38613040E-15  1.77420856E-12
  1.38796792E-01  1.50729142E+00  3.72533906E-15 -9.93296883E-13 -7.76398607E-02
 -8.43145538E-01 -1.54236959E-15  3.63381734E-13  2.84437142E-02  3.08890183E-01
  1.81521185E-15 -2.49876853E-15  2.47120077E-17  8.55642741E-17 -5.65230192E-16
 -5.90237941E-17 -1.64297526E-16  1.02150072E-13 -1.26861205E+00  1.16818341E-01
  1.00295456E-15 -1.21998278E-13  1.50729142E+00 -1.38796792E-01 -1.13963752E-15
  6.80407161E-14 -8.43145538E-01  7.76398607E-02  4.88096968E-16 -2.48912589E-14
  3.08890183E-01 -2.84437142E-02 -2.10659391E-16 -2.28101186E-16  1.87950310E-15
 -1.49750110E-17 -3.34536970E-15 -2.24569505E+00  2.33056485E+00 -2.09181625E-16
  1.11487329E-18  9.72076179E-17 -2.50034958E-01  2.51197126E-16 -7.31543605E-19
 -1.30341307E-16  2.29883037E-01 -1.36256553E-16  3.55561333E-19  7.92997400E-17
 -9.17218912E-02  5.23271230E-17  8.12084424E-21 -2.67049254E-17 -2.22735931E-05
 -2.91333318E-16  6.56219232E-17  3.85789949E-05  2.39501133E-20
Total SCF Density                          R   N=         253
  6.42187036E-01  5.73504071E-01  5.30798442E-01 -5.18289777E-17 -4.95415729E-16
  2.03331373E-01  2.10449120E-16  1.62792660E-16  1.50572272E-17  1.09876555E-01
  4.81497740E-17  4.50196568E-16  4.18140558E-14 -1.96378368E-17  1.09876555E-01
 -1.53511914E-01 -2.57050728E-01  3.86207170E-15  1.11864397E-16 -2.74823828E-15
  8.09193583E-01 -1.54780793E-15 -2.39603976E-15  2.92449897E-01  2.48848007E-17
  5.79790345E-14  8.28024622E-15  4.20635257E-01 -2.54365636E-16 -1.95394908E-16
  6.39427984E-18  1.61231141E-01 -1.58078847E-17 -1.51903140E-16  1.34385378E-17
  2.36588058E-01  1.48530664E-15  2.17713594E-15  5.68247184E-14 -2.64241986E-17
  1.61231141E-01 -6.01385246E-15  7.85645819E-14 -1.97460321E-17  2.36588058E-01
 -1.33375455E-01 -2.10194030E-01  1.87358894E-15  7.36754823E-17 -2.35739939E-15
  6.18006806E-01  4.80376403E-15 -9.52924965E-17 -4.98808590E-15  4.74643476E-01
  1.67121897E-16  2.31788841E-16  2.55111353E-01  2.18199888E-17  6.02416646E-14
  6.39392704E-16  3.66875041E-01  1.58812857E-17  8.26661277E-14 -8.81981509E-16
  3.20434202E-01  1.42324103E-16  1.06697788E-16 -1.65835627E-17  1.25846629E-01
  3.16246501E-17  9.63396039E-17 -2.03204786E-17  1.84665378E-01  4.90926267E-17
  6.53818502E-17 -1.62604070E-17  1.44137883E-01  3.11130677E-16  5.65172447E-16
  6.22205065E-14 -1.77270761E-17  1.25846629E-01 -2.05225838E-15  8.69917944E-14
 -1.10687619E-17  1.84665378E-01 -1.90142987E-15  8.71442802E-14  4.16917293E-17
  1.44137883E-01  1.94569381E-03  1.44788788E-03 -6.14688581E-15 -7.24792044E-19
  1.95630895E-15  1.28765291E-03 -8.83695704E-15  1.83461274E-18  2.87315577E-15
  1.56483072E-03 -7.74352733E-15 -6.38766153E-19  2.23644963E-15  1.94655448E-04
  4.58084661E-16  7.54091439E-16  4.95930426E-02  7.37201295E-19  1.97273037E-14
 -2.08747610E-15  7.12733846E-02  1.26690689E-18  2.77916257E-14 -1.89195696E-15
  6.26243408E-02 -6.06273975E-18  2.62797207E-14 -1.52944303E-15  1.25490143E-02
 -5.06810820E-17 -3.69207887E-17  1.99764876E-17  1.26096716E-02 -3.61471608E-17
 -4.30976787E-17  2.89209056E-17  1.85032353E-02 -5.27718765E-17 -2.67730573E-17
  2.67057837E-17  1.44424320E-02 -4.08515735E-17  9.59060437E-19  6.00757574E-18
  1.44711325E-03 -2.29012300E-16 -3.48344085E-16  2.03565452E-14 -1.00666044E-17
  1.26096716E-02  9.69530517E-16  2.90088140E-14 -1.32766393E-17  1.85032353E-02
  6.87970931E-16  2.65897269E-14 -5.31979373E-18  1.44424320E-02  2.19759397E-16
  6.23489615E-15 -5.04501840E-18  1.44711325E-03 -5.60960080E-04 -9.02160827E-04
 -1.46762918E-15  2.26430316E-18 -9.18157070E-16  2.79199384E-03 -2.10212245E-15
 -1.44360901E-18 -1.35593031E-15  1.73803549E-03 -1.84869580E-15  2.06531641E-18
 -1.04323277E-15 -1.09333230E-04 -3.60621730E-16 -8.44383868E-19 -9.68563801E-17
  7.97888868E-05  4.36495006E-15  7.21484797E-15 -1.45233027E-15 -9.81953256E-18
  1.16427102E-15 -2.24716714E-14 -2.08938645E-15 -1.44090287E-17  1.70843312E-15
 -1.68054900E-14 -1.81849983E-15 -1.12467584E-17  1.33349270E-15  6.78143400E-17
 -3.50081327E-16 -1.12691084E-18  1.33614267E-16 -1.41327324E-16  7.04844048E-28
 -1.47194177E-17 -1.25721528E-17 -1.58741355E-17 -7.79758980E-16 -4.59436732E-17
  1.03287993E-18 -2.29496076E-17 -1.14420615E-15 -6.74170286E-17  4.64233810E-19
 -1.90681320E-17 -8.93093518E-16 -5.26213840E-17 -1.12629988E-19 -2.91538243E-18
 -8.94868310E-17 -5.27259554E-18  9.97971518E-20 -4.33608915E-31  5.57032298E-30
  9.71611360E-04  1.56258839E-03  2.36448549E-15 -2.89291819E-18 -8.67126693E-17
 -4.83587518E-03  3.38497754E-15  4.01029855E-18 -1.12274232E-16 -3.01036577E-03
  2.98416446E-15 -2.39870676E-18 -1.13820844E-16  1.89370710E-04  5.86794647E-16
  1.58060258E-18 -2.46968292E-17 -1.38198406E-04  2.44786106E-16 -1.72853737E-19
  2.39366660E-04  1.17453193E-18  1.90713247E-18 -2.89299975E-17  1.08692065E-15
 -3.83983664E-18 -5.87766764E-18 -4.14831441E-17  1.59493039E-15 -5.63451633E-18
 -4.10349993E-18 -3.72081431E-17  1.24489979E-15 -4.39794001E-18  1.02536517E-19
 -8.08280222E-18  1.24737371E-16 -4.40667977E-19 -8.90722966E-20  2.85151779E-31
 -7.71190243E-30  1.54277743E-19  1.07587213E-29
Spin SCF Density                           R   N=         253
 -4.44102909E-04  1.65339615E-03  4.19920282E-03 -1.23728153E-16 -5.61694691E-17
  6.61481054E-03  1.13396019E-16  7.29524422E-17  1.80660128E-17  1.09876555E-01
  4.10039351E-18 -2.36879672E-16 -4.94062233E-14 -1.96378368E-17  1.09876555E-01
 -7.14316605E-03 -1.40580477E-02 -3.49730651E-16  1.56074160E-16  1.38092798E-15
  5.90353907E-02  2.75228853E-16  2.85009097E-16  1.06974018E-02  2.91942135E-17
 -7.26736211E-14 -3.40147950E-16  1.70877987E-02 -1.34325828E-16 -8.66879974E-17
 -5.89951149E-17  1.61231141E-01 -1.58078847E-17 -1.91250755E-16 -8.02171509E-17
  2.36588058E-01 -8.38729061E-16 -1.02259432E-15 -7.15782138E-14 -2.64241986E-17
  1.61231141E-01  1.71048759E-15 -1.05343911E-13 -1.97460321E-17  2.36588058E-01
  1.15910022E-03  1.48606808E-03 -1.80761209E-16  1.12023570E-16  1.01169410E-15
  2.67237940E-03 -2.94932435E-16 -1.30216397E-16  1.36723287E-15 -3.04397484E-02
 -9.40607503E-17 -4.69171856E-17 -2.12270660E-04  2.57251711E-17 -5.81555454E-14
 -3.42020814E-16  1.18103375E-03 -6.89893371E-17 -8.39914300E-14  1.14039012E-16
 -1.09570737E-02  6.86655153E-17  3.83232179E-17 -8.86253728E-18  1.25846629E-01
  3.16246501E-17  1.31102001E-16 -9.26183586E-18  1.84665378E-01  4.90926267E-17
  9.54726091E-17 -6.23908413E-18  1.44137883E-01 -2.12806693E-16 -5.44897276E-16
 -6.01493660E-14 -1.77270761E-17  1.25846629E-01  2.16053098E-15 -8.82756896E-14
 -1.10687619E-17  1.84665378E-01  1.54718267E-15 -7.16828101E-14  4.16917293E-17
  1.44137883E-01  2.81679350E-03  4.29316139E-03  1.33493078E-16 -1.87373551E-19
  2.03200018E-15 -1.20723141E-02  1.16208404E-16  1.45143963E-18  3.00841375E-15
 -9.35308254E-03  4.89820681E-16 -2.08687002E-19  2.31231988E-15 -4.81851199E-05
 -4.31604551E-18 -3.56470836E-17 -7.98042665E-03  1.61778921E-18 -6.97033611E-15
  1.21741316E-16 -1.11877383E-02 -1.78707511E-17 -9.78834302E-15  3.24659284E-16
 -1.21017858E-02 -3.80301024E-18 -9.53453919E-15  3.70598516E-16 -4.30113964E-03
 -1.51092420E-17 -5.97836565E-20 -2.85002060E-17  1.26096716E-02 -3.61471608E-17
 -8.43058465E-17 -4.05111199E-17  1.85032353E-02 -5.27718765E-17 -6.12238511E-17
 -3.62133975E-17  1.44424320E-02 -4.08515735E-17  3.02979084E-19 -8.18020483E-18
  1.44711325E-03 -3.06508336E-16 -3.70815449E-16 -8.89729668E-15 -1.00666044E-17
  1.26096716E-02  6.91609121E-16 -1.28907742E-14 -1.32766393E-17  1.85032353E-02
  4.63103954E-16 -1.13796073E-14 -5.31979373E-18  1.44424320E-02  2.14437434E-16
 -2.32689013E-15 -5.04501840E-18  1.44711325E-03 -1.39182344E-03 -2.38644321E-03
 -9.26983401E-17  1.99277334E-18 -9.45430011E-16  7.71742091E-03 -1.16150694E-16
 -1.20907720E-18 -1.40647401E-15  5.77516193E-03 -9.37357956E-17  1.85124814E-18
 -1.07095650E-15 -2.12457468E-05  1.91345345E-17 -5.79653328E-19 -9.50036667E-17
  4.74216714E-05  1.30253605E-15  2.39707729E-15 -1.35019608E-16 -9.81953256E-18
  1.16427102E-15 -8.46930728E-15 -2.02633439E-16 -1.44090287E-17  1.70843312E-15
 -5.31194558E-15 -1.08727520E-16 -1.12467584E-17  1.33349270E-15  3.16256285E-16
  3.54588846E-17 -1.12691084E-18  1.33614267E-16 -2.33194744E-16  4.34478538E-28
  8.99226081E-17  7.55060062E-17 -2.07641055E-17 -7.79758980E-16 -4.59436732E-17
  9.23277464E-18 -2.99533964E-17 -1.14420615E-15 -6.74170286E-17  4.68651087E-18
 -2.54149533E-17 -8.93093518E-16 -5.26213840E-17  3.33696557E-19 -4.34654071E-18
 -8.94868310E-17 -5.27259554E-18  2.34365074E-20 -4.96773486E-31  5.55173064E-30
  2.41070891E-03  4.13344088E-03  3.88099839E-17 -2.42261475E-18 -3.94745495E-17
 -1.33669651E-02  2.50581745E-17  3.60407755E-18 -2.47299702E-17 -1.00028739E-02
  1.68758627E-17 -2.02792964E-18 -6.58019360E-17  3.67987129E-05 -5.46388297E-17
  1.12207583E-18 -2.79058230E-17 -8.21367443E-05  4.03905144E-16 -4.05932216E-20
  1.42265014E-04  1.61478136E-18  2.58524696E-18  2.07957816E-17  1.08692065E-15
 -3.83983664E-18 -7.79855058E-18  2.97379171E-17  1.59493039E-15 -5.63451633E-18
 -5.68069067E-18  2.73322591E-17  1.24489979E-15 -4.39794001E-18  6.85114881E-20
  6.47055095E-18  1.24737371E-16 -4.40667977E-19 -7.64739398E-20 -1.19462656E-32
 -7.71065668E-30  1.32456749E-19  1.07461467E-29
Cartesian Gradient                         R   N=           3
  0.00000000E+00  0.00000000E+00  0.00000000E+00
Dipole Moment                              R   N=           3
  4.16331219E-15  1.85097276E-16  1.88276368E-14
